ITEM: TIMESTEP
0
ITEM: NUMBER OF ATOMS
500
ITEM: BOX BOUNDS pp pp pp
0.0000000000000000e+00 1.5874010519681994e+01
0.0000000000000000e+00 1.5874010519681994e+01
0.0000000000000000e+00 1.5874010519681994e+01
ITEM: ATOMS id type xs ys zs
3 1 0.106927 0.0126056 0.11442
102 1 0.107353 0.113454 0.199491
101 1 0.0189882 0.00868198 0.188002
2 1 0.0968693 0.106062 0.0255683
8 1 0.210623 0.0989085 0.0974106
6 1 0.32511 0.1101 0.0105159
5 1 0.219768 0.00896123 0.00395939
12 1 0.407542 0.105961 0.10223
16 1 0.599925 0.10335 0.0873797
110 1 0.495483 0.113175 0.194489
10 1 0.504081 0.106307 0.00867041
15 1 0.696653 0.00519922 0.110224
20 1 0.783929 0.109983 0.0829271
114 1 0.676001 0.108023 0.194471
4 1 0.998506 0.123605 0.0937297
18 1 0.885721 0.102803 0.00145712
19 1 0.917447 0.00792364 0.0918234
121 1 0.995421 0.195642 0.188356
39 1 0.870768 0.194315 0.101548
118 1 0.895826 0.102191 0.187724
117 1 0.800768 0.00753764 0.180403
23 1 0.109161 0.206286 0.0879666
122 1 0.0961573 0.304305 0.198111
28 1 0.193522 0.312483 0.0976515
43 1 0.101896 0.396182 0.0888418
27 1 0.300818 0.211632 0.108857
145 1 0.204844 0.398231 0.188121
32 1 0.393735 0.316008 0.0971675
125 1 0.205349 0.201267 0.197651
31 1 0.488655 0.213977 0.0958656
36 1 0.587832 0.310722 0.113878
130 1 0.489054 0.304471 0.197593
35 1 0.69865 0.218358 0.108401
40 1 0.789729 0.317781 0.0944438
55 1 0.691042 0.385665 0.085546
37 1 0.773959 0.212405 0.00369454
33 1 0.608081 0.202275 0.00913331
21 1 0.98224 0.220941 0.0156646
24 1 0.991369 0.298003 0.0889575
38 1 0.881192 0.306299 0.0056933
138 1 0.88644 0.284396 0.191155
44 1 0.0200483 0.514914 0.100114
142 1 0.0939262 0.474655 0.196632
41 1 0.000477455 0.413601 0.0137168
47 1 0.303959 0.412054 0.0967691
48 1 0.201434 0.500203 0.0984133
67 1 0.321764 0.585455 0.0848258
165 1 0.209235 0.59293 0.18054
52 1 0.408021 0.499296 0.0955413
51 1 0.495148 0.41549 0.0961519
56 1 0.599901 0.49543 0.108729
71 1 0.5177 0.592205 0.0769397
154 1 0.697426 0.487168 0.193705
75 1 0.694323 0.597826 0.0978921
60 1 0.769795 0.494141 0.0836557
157 1 0.804781 0.406996 0.196464
59 1 0.900752 0.415364 0.0786817
158 1 0.887204 0.50797 0.192351
141 1 0.984999 0.405173 0.185798
63 1 0.109314 0.606867 0.0936848
64 1 0.00724087 0.704851 0.0845424
162 1 0.105288 0.699492 0.190484
181 1 0.00635634 0.796013 0.183021
68 1 0.21545 0.70022 0.0789851
166 1 0.314699 0.684933 0.180541
66 1 0.322177 0.703168 0.0108385
72 1 0.420702 0.69518 0.106578
76 1 0.591557 0.694279 0.103593
91 1 0.520029 0.798459 0.101125
177 1 0.776972 0.603356 0.185262
80 1 0.795704 0.709203 0.0976173
174 1 0.697144 0.716733 0.189808
79 1 0.894259 0.61309 0.0834161
178 1 0.89709 0.698757 0.175417
197 1 0.813786 0.791659 0.199098
78 1 0.904547 0.708809 0.0015175
83 1 0.124053 0.81877 0.101489
81 1 0.0201791 0.809475 0.00632997
88 1 0.198431 0.929839 0.110551
84 1 0.0118286 0.906102 0.096397
7 1 0.319405 0.992594 0.104993
87 1 0.297687 0.809181 0.110266
86 1 0.322828 0.899938 0.00837558
85 1 0.20464 0.818116 0.0142322
11 1 0.490964 0.993381 0.0887576
89 1 0.405164 0.809691 0.00509426
92 1 0.404048 0.895134 0.126851
90 1 0.50026 0.889146 0.00919391
95 1 0.678391 0.804396 0.0916744
97 1 0.797674 0.804815 0.00969106
96 1 0.6062 0.906459 0.113375
94 1 0.701122 0.89654 0.0039261
100 1 0.798071 0.891222 0.104017
17 1 0.800419 0.990881 0.0127298
99 1 0.907642 0.806774 0.098567
198 1 0.907453 0.897685 0.180043
103 1 0.0957904 0.0143368 0.292276
202 1 0.0739956 0.105902 0.387947
108 1 0.190324 0.120454 0.299376
106 1 0.312202 0.093945 0.203532
107 1 0.312063 0.0125157 0.322844
112 1 0.394177 0.115333 0.311788
105 1 0.218455 0.00764688 0.211547
206 1 0.290017 0.108473 0.398265
109 1 0.420287 0.00964688 0.218257
116 1 0.585522 0.0967789 0.313493
113 1 0.576642 0.00209479 0.208808
137 1 0.777349 0.184871 0.212601
120 1 0.788635 0.0876048 0.306118
135 1 0.678279 0.198183 0.309409
115 1 0.6945 0.00227033 0.290929
217 1 0.814247 0.00171031 0.395154
104 1 0.996586 0.0979297 0.283176
119 1 0.903192 0.000599184 0.282239
218 1 0.899295 0.103896 0.385844
139 1 0.895564 0.195007 0.295893
201 1 0.996912 0.00150645 0.39846
123 1 0.0860678 0.214102 0.289215
128 1 0.196829 0.290987 0.292667
225 1 0.17551 0.209459 0.395157
143 1 0.106446 0.397785 0.298205
245 1 0.190984 0.374695 0.394306
126 1 0.309048 0.316022 0.202522
127 1 0.303902 0.216904 0.315593
132 1 0.392811 0.304136 0.302369
153 1 0.595802 0.386047 0.201159
129 1 0.405381 0.203858 0.208131
131 1 0.492024 0.213932 0.302874
133 1 0.592563 0.201714 0.201935
136 1 0.590927 0.299429 0.317104
134 1 0.706254 0.298466 0.202575
237 1 0.798355 0.204137 0.396146
140 1 0.796089 0.306226 0.310476
155 1 0.698974 0.38958 0.31732
124 1 0.985259 0.308118 0.2944
238 1 0.89285 0.301965 0.392251
241 1 0.00514442 0.406221 0.395372
163 1 0.0982418 0.590678 0.279334
148 1 0.195074 0.506738 0.286044
144 1 0.00326669 0.476611 0.292073
242 1 0.111227 0.490776 0.392485
149 1 0.388056 0.423033 0.210645
147 1 0.293647 0.400222 0.312819
146 1 0.290532 0.506172 0.20955
167 1 0.308012 0.595656 0.307833
265 1 0.205992 0.584649 0.39954
150 1 0.507469 0.502383 0.213416
169 1 0.400386 0.584782 0.211543
152 1 0.404377 0.486663 0.320897
151 1 0.505844 0.403317 0.305706
171 1 0.501394 0.594497 0.309835
156 1 0.609144 0.49031 0.284016
254 1 0.694675 0.514393 0.395005
160 1 0.782108 0.507224 0.293674
159 1 0.88773 0.410421 0.287941
258 1 0.904478 0.491279 0.39815
261 1 0.99406 0.592189 0.363279
277 1 0.802513 0.592013 0.399366
262 1 0.107033 0.675904 0.387213
168 1 0.197639 0.681584 0.283184
183 1 0.113519 0.790504 0.291217
281 1 0.0138725 0.793529 0.393323
285 1 0.189457 0.794007 0.391535
187 1 0.293898 0.781427 0.299275
185 1 0.2037 0.789713 0.204644
189 1 0.394449 0.788327 0.213096
266 1 0.292941 0.704668 0.395817
170 1 0.495808 0.696721 0.214398
172 1 0.402137 0.68197 0.313177
191 1 0.495628 0.795712 0.309903
193 1 0.586276 0.782622 0.214299
289 1 0.406402 0.79933 0.391187
173 1 0.604735 0.616612 0.205598
175 1 0.699988 0.606185 0.284859
176 1 0.603482 0.699281 0.319119
180 1 0.796075 0.703038 0.29549
195 1 0.70265 0.796549 0.30891
161 1 0.991237 0.602605 0.200558
179 1 0.880874 0.604943 0.278313
164 1 0.996215 0.708402 0.287497
278 1 0.895165 0.695071 0.375895
182 1 0.125383 0.892122 0.219146
205 1 0.190072 0.99575 0.393485
184 1 0.0068743 0.897943 0.294696
282 1 0.103743 0.900065 0.394939
188 1 0.221582 0.90255 0.310681
186 1 0.299857 0.901297 0.20244
192 1 0.368642 0.904637 0.305159
190 1 0.492127 0.891024 0.201298
111 1 0.484429 0.991122 0.319484
196 1 0.595959 0.905271 0.289062
293 1 0.61674 0.817898 0.390424
194 1 0.697612 0.884617 0.222041
294 1 0.723588 0.910243 0.379137
199 1 0.919227 0.811484 0.295286
200 1 0.802243 0.910291 0.273227
203 1 0.0903945 0.0154739 0.496902
208 1 0.181786 0.101452 0.488919
223 1 0.0851642 0.1957 0.496115
207 1 0.27584 0.00274534 0.511069
212 1 0.383128 0.0992714 0.511824
227 1 0.288536 0.190374 0.493748
325 1 0.201391 0.184433 0.593396
209 1 0.386137 0.00916047 0.417231
210 1 0.501783 0.0979931 0.408036
231 1 0.531954 0.193311 0.527863
229 1 0.41717 0.19785 0.440292
214 1 0.69968 0.08815 0.408869
216 1 0.614819 0.078281 0.51726
235 1 0.698383 0.196743 0.491974
337 1 0.790009 0.199471 0.583119
204 1 0.988591 0.0913108 0.504265
220 1 0.809071 0.087875 0.494464
239 1 0.882506 0.196337 0.499335
321 1 0.983551 0.185973 0.597138
222 1 0.067256 0.291889 0.412146
228 1 0.197247 0.290154 0.504956
322 1 0.0838238 0.27827 0.594509
226 1 0.311865 0.309162 0.405149
232 1 0.389203 0.303105 0.529792
247 1 0.276258 0.386853 0.530399
233 1 0.580623 0.201606 0.407893
230 1 0.501023 0.312381 0.416048
329 1 0.404692 0.210265 0.597982
249 1 0.400507 0.386204 0.425649
251 1 0.504408 0.389911 0.510465
236 1 0.612038 0.301181 0.510749
234 1 0.704484 0.293517 0.409055
240 1 0.796817 0.318094 0.500744
221 1 0.966884 0.203582 0.402711
224 1 0.973287 0.296611 0.504756
259 1 0.911902 0.395371 0.501365
243 1 0.0908986 0.409401 0.498027
263 1 0.0778634 0.591669 0.490873
248 1 0.193964 0.479646 0.505677
365 1 0.192532 0.598151 0.58932
269 1 0.388984 0.582716 0.421877
246 1 0.298546 0.475211 0.401637
252 1 0.378574 0.480029 0.509645
250 1 0.499299 0.480368 0.404745
256 1 0.596941 0.503521 0.499816
271 1 0.500134 0.592085 0.49223
255 1 0.703387 0.422745 0.501219
253 1 0.607066 0.402813 0.403441
275 1 0.700896 0.596137 0.506054
354 1 0.716138 0.497095 0.597766
257 1 0.816633 0.411104 0.400987
260 1 0.805877 0.512946 0.506774
244 1 0.998486 0.499706 0.518558
279 1 0.915117 0.58372 0.490434
268 1 0.176302 0.697575 0.490765
283 1 0.0867646 0.779835 0.498181
385 1 0.193364 0.796321 0.594979
362 1 0.0979507 0.692571 0.592997
267 1 0.298446 0.60741 0.48846
272 1 0.384169 0.721777 0.494458
366 1 0.283339 0.692984 0.587777
369 1 0.396959 0.601421 0.590651
389 1 0.408479 0.79557 0.586112
273 1 0.586527 0.601258 0.404446
270 1 0.491795 0.685748 0.403154
370 1 0.496497 0.704904 0.582494
291 1 0.503731 0.797242 0.488205
274 1 0.722841 0.67852 0.409017
373 1 0.606605 0.623098 0.580098
276 1 0.606263 0.722772 0.474935
393 1 0.606514 0.791077 0.595544
374 1 0.707112 0.723072 0.592061
264 1 0.995513 0.680761 0.470633
280 1 0.822007 0.684868 0.507131
381 1 0.995299 0.795546 0.592969
299 1 0.909218 0.791277 0.484624
397 1 0.820143 0.79731 0.581733
288 1 0.173789 0.902859 0.495606
382 1 0.093509 0.894078 0.598753
284 1 0.00903886 0.894017 0.506726
287 1 0.280059 0.804423 0.508134
286 1 0.299467 0.88387 0.407606
386 1 0.29632 0.903202 0.596485
292 1 0.380816 0.901117 0.504949
290 1 0.500611 0.915002 0.400488
211 1 0.491573 0.97518 0.515675
390 1 0.504602 0.883944 0.596524
213 1 0.604681 0.990352 0.409536
295 1 0.709609 0.807611 0.493449
296 1 0.605485 0.893893 0.505051
215 1 0.714649 0.983154 0.506021
297 1 0.805434 0.80891 0.400722
298 1 0.920376 0.885385 0.403552
219 1 0.899967 0.995007 0.494346
300 1 0.813418 0.904076 0.500024
398 1 0.914021 0.903096 0.59555
302 1 0.0993629 0.103754 0.605365
305 1 0.185066 0.00845378 0.601039
308 1 0.19497 0.102623 0.714638
323 1 0.100702 0.199708 0.707431
303 1 0.111029 0.00299277 0.70072
306 1 0.300834 0.103808 0.619079
327 1 0.293436 0.186509 0.717413
309 1 0.395603 0.00360478 0.607093
307 1 0.289732 0.00137886 0.701207
409 1 0.39433 0.00352368 0.777711
310 1 0.481955 0.0921523 0.600258
312 1 0.400595 0.10023 0.710403
410 1 0.505536 0.0803851 0.789371
331 1 0.507925 0.185658 0.68459
429 1 0.40875 0.188297 0.792131
433 1 0.596873 0.193557 0.793974
333 1 0.62858 0.197432 0.606216
313 1 0.612186 0.000495913 0.607815
316 1 0.62604 0.0949961 0.709129
314 1 0.71534 0.0946548 0.60977
320 1 0.795624 0.0970951 0.722686
318 1 0.879601 0.0958115 0.607743
304 1 0.995069 0.108292 0.704846
339 1 0.887666 0.198715 0.707303
345 1 0.158367 0.383775 0.614616
328 1 0.182861 0.289226 0.70327
343 1 0.086416 0.386332 0.715006
326 1 0.285767 0.286144 0.61298
426 1 0.299766 0.278574 0.795976
332 1 0.388356 0.287895 0.698028
347 1 0.277263 0.399472 0.701425
449 1 0.37564 0.388143 0.781384
330 1 0.499481 0.30598 0.602916
430 1 0.502115 0.293902 0.772438
336 1 0.599671 0.295326 0.709227
335 1 0.71669 0.211168 0.710264
334 1 0.713738 0.32774 0.605702
340 1 0.798781 0.305145 0.716228
324 1 0.983123 0.290158 0.694492
338 1 0.883047 0.279187 0.604874
341 1 0.99873 0.38722 0.606835
342 1 0.105939 0.502137 0.607803
348 1 0.187709 0.490379 0.706302
344 1 0.00803428 0.497273 0.702331
349 1 0.393709 0.400865 0.621378
346 1 0.27727 0.507286 0.600413
446 1 0.295401 0.514413 0.783088
352 1 0.392928 0.512926 0.696622
453 1 0.585709 0.415319 0.7956
350 1 0.49626 0.517934 0.605965
351 1 0.495111 0.406836 0.697778
450 1 0.489756 0.502661 0.780054
355 1 0.683292 0.405231 0.716816
356 1 0.607496 0.512611 0.683308
353 1 0.605624 0.412656 0.610222
360 1 0.788155 0.505979 0.722044
473 1 0.600677 0.597357 0.798212
454 1 0.692021 0.501786 0.795698
361 1 0.999879 0.595396 0.604334
358 1 0.888527 0.496824 0.608285
359 1 0.920033 0.40695 0.713806
357 1 0.818503 0.409773 0.606746
457 1 0.803652 0.404897 0.78792
379 1 0.892512 0.598411 0.693383
363 1 0.095524 0.603946 0.691747
368 1 0.190036 0.70604 0.697726
485 1 0.190088 0.798408 0.784316
383 1 0.0832511 0.796363 0.686804
462 1 0.0971211 0.698901 0.796927
367 1 0.281997 0.60619 0.704103
469 1 0.399265 0.618573 0.792175
387 1 0.30782 0.782451 0.692046
372 1 0.419531 0.688921 0.688775
371 1 0.531149 0.629148 0.704053
470 1 0.509852 0.724093 0.798906
375 1 0.693333 0.624223 0.686869
376 1 0.61389 0.718778 0.706695
395 1 0.719739 0.79166 0.72176
377 1 0.80233 0.600109 0.606854
364 1 0.985213 0.702455 0.71365
378 1 0.911667 0.691207 0.603939
380 1 0.800506 0.705255 0.692077
399 1 0.903545 0.79484 0.691972
477 1 0.835058 0.63083 0.790039
384 1 0.00709799 0.900956 0.715146
482 1 0.103505 0.895869 0.794638
388 1 0.204078 0.894382 0.689705
486 1 0.293571 0.904266 0.793752
392 1 0.390447 0.891814 0.687388
391 1 0.498989 0.803003 0.700269
489 1 0.407876 0.808651 0.789686
311 1 0.513548 0.983382 0.684744
490 1 0.507085 0.91423 0.791673
394 1 0.716412 0.880583 0.60229
317 1 0.797157 0.99483 0.608681
413 1 0.610595 0.981377 0.799268
396 1 0.614514 0.881823 0.697302
315 1 0.713038 0.98844 0.697656
494 1 0.722689 0.893813 0.783146
301 1 0.999065 0.999049 0.604247
400 1 0.823694 0.896467 0.694808
319 1 0.922419 0.999853 0.696689
1 1 0.0226648 0.00106267 0.999475
402 1 0.101193 0.0964646 0.805531
423 1 0.08361 0.193518 0.911135
403 1 0.114987 0.0090283 0.906552
408 1 0.19672 0.108524 0.904387
25 1 0.197198 0.199144 0.99099
401 1 0.00914044 0.00036837 0.807891
406 1 0.294841 0.0953314 0.805908
427 1 0.312923 0.190487 0.892288
407 1 0.294375 0.00502377 0.902199
9 1 0.395508 0.00490173 0.995919
412 1 0.421408 0.0941991 0.907158
416 1 0.591061 0.082014 0.896661
14 1 0.684633 0.100795 0.994547
414 1 0.708015 0.0914458 0.808835
437 1 0.79799 0.198992 0.811077
435 1 0.685044 0.191742 0.896423
404 1 0.993425 0.101903 0.92907
420 1 0.80079 0.104367 0.915358
421 1 0.998171 0.188216 0.809788
418 1 0.908913 0.103952 0.804664
419 1 0.905062 0.00157107 0.916038
425 1 0.193405 0.211152 0.822219
422 1 0.0823693 0.291208 0.813087
22 1 0.103263 0.307151 0.995895
424 1 0.00260676 0.309961 0.913462
445 1 0.194847 0.374699 0.813548
29 1 0.397727 0.20832 0.990365
26 1 0.314977 0.306389 0.997978
428 1 0.224217 0.297803 0.905206
447 1 0.321758 0.396088 0.885933
431 1 0.516623 0.202675 0.89265
432 1 0.400758 0.271112 0.88832
30 1 0.508169 0.308902 0.995485
451 1 0.487985 0.391918 0.873191
34 1 0.671301 0.299306 0.993133
436 1 0.600077 0.313703 0.887139
434 1 0.697623 0.304261 0.813741
440 1 0.792281 0.304394 0.900241
439 1 0.896373 0.206521 0.911152
438 1 0.914899 0.295215 0.816278
459 1 0.892279 0.385123 0.903403
443 1 0.103832 0.410862 0.900206
442 1 0.103337 0.507325 0.805663
42 1 0.111454 0.494339 0.995667
444 1 0.00416571 0.487444 0.909534
463 1 0.100387 0.599602 0.912056
46 1 0.316541 0.501959 0.983924
45 1 0.206096 0.40753 0.990723
448 1 0.221162 0.493552 0.877956
65 1 0.205407 0.595607 0.988557
53 1 0.59503 0.407624 0.991771
73 1 0.594841 0.587261 0.990277
49 1 0.412778 0.401989 0.981435
50 1 0.486954 0.483442 0.991131
452 1 0.411162 0.498145 0.88427
456 1 0.580305 0.498917 0.90449
471 1 0.494089 0.593134 0.892492
57 1 0.793968 0.40255 0.98308
455 1 0.69334 0.413457 0.901235
54 1 0.685262 0.506437 0.984315
61 1 0.991571 0.598437 0.993268
460 1 0.801704 0.504176 0.882248
441 1 0.996856 0.404811 0.811482
58 1 0.882773 0.498799 0.994286
458 1 0.907799 0.496559 0.804132
479 1 0.890351 0.596705 0.907751
461 1 0.994047 0.595005 0.80118
465 1 0.194784 0.611135 0.809065
62 1 0.128317 0.704217 0.999019
464 1 0.0242452 0.697894 0.899399
483 1 0.106026 0.795883 0.893229
466 1 0.315587 0.714691 0.804493
468 1 0.220403 0.70923 0.895883
467 1 0.305158 0.608825 0.900139
70 1 0.502944 0.702934 0.995955
69 1 0.417422 0.616149 0.987006
472 1 0.411361 0.70649 0.88941
476 1 0.588387 0.698925 0.905171
74 1 0.697977 0.704815 0.998313
77 1 0.787188 0.60047 0.993128
475 1 0.700144 0.601035 0.888583
474 1 0.715 0.697277 0.808238
480 1 0.79124 0.720481 0.919809
478 1 0.916033 0.702874 0.833106
481 1 0.988058 0.797608 0.805539
497 1 0.828807 0.794398 0.809983
82 1 0.116659 0.913455 0.999545
484 1 0.0346915 0.88733 0.90505
405 1 0.202282 0.988038 0.810646
488 1 0.200962 0.883588 0.899429
487 1 0.294227 0.803403 0.905758
492 1 0.396843 0.894825 0.877173
93 1 0.599259 0.807749 0.97613
411 1 0.501826 0.979554 0.907626
491 1 0.490904 0.804393 0.901635
13 1 0.605867 0.989933 0.999668
493 1 0.609276 0.804198 0.820653
415 1 0.707401 0.998661 0.900536
496 1 0.60223 0.902548 0.894817
495 1 0.716145 0.809636 0.889667
500 1 0.797446 0.906758 0.911793
98 1 0.915616 0.912645 0.994076
498 1 0.913762 0.896489 0.81448
417 1 0.822768 0.991222 0.810036
499 1 0.906161 0.807742 0.920157
ITEM: TIMESTEP
1000
ITEM: NUMBER OF ATOMS
500
ITEM: BOX BOUNDS pp pp pp
-1.2929912553447664e-03 1.5875303510937357e+01
-1.2929912553447664e-03 1.5875303510937357e+01
-1.2929912553447664e-03 1.5875303510937357e+01
ITEM: ATOMS id type xs ys zs
3 1 0.0639863 0.000419511 0.117341
102 1 0.0733172 0.102246 0.188312
2 1 0.11437 0.110305 0.00253702
8 1 0.175538 0.121703 0.105742
5 1 0.17744 0.0052154 0.0143238
6 1 0.260217 0.109702 0.00822062
7 1 0.299463 0.0222872 0.0898566
106 1 0.297199 0.150662 0.169096
12 1 0.405896 0.113995 0.106893
16 1 0.597527 0.103347 0.0991913
10 1 0.516319 0.104136 0.00218884
31 1 0.470668 0.194945 0.0802992
11 1 0.488813 0.0253593 0.123444
114 1 0.728111 0.0768137 0.159259
35 1 0.683752 0.19674 0.0624584
20 1 0.815744 0.137895 0.0952017
4 1 0.961795 0.102028 0.0947044
18 1 0.909491 0.0683602 0.0103229
23 1 0.0990371 0.211332 0.11945
122 1 0.0924832 0.292199 0.183303
43 1 0.143958 0.393048 0.115482
22 1 0.129538 0.324181 0.00629812
28 1 0.203737 0.268123 0.121498
27 1 0.332793 0.230379 0.0723308
145 1 0.257284 0.395739 0.175613
47 1 0.360344 0.383961 0.106247
126 1 0.333586 0.288743 0.185768
45 1 0.238219 0.387998 0.0363396
32 1 0.480899 0.316493 0.086067
133 1 0.561013 0.203707 0.159034
149 1 0.429869 0.392489 0.18769
36 1 0.600413 0.311052 0.0624855
40 1 0.776487 0.289092 0.0860422
157 1 0.760432 0.364896 0.199092
137 1 0.782213 0.230916 0.17624
134 1 0.661838 0.307277 0.170625
121 1 0.978618 0.207669 0.173973
39 1 0.892064 0.223116 0.0980245
24 1 0.982292 0.311019 0.0628345
59 1 0.845599 0.388203 0.111209
141 1 0.97352 0.37841 0.158495
44 1 0.0106088 0.489901 0.111869
142 1 0.116098 0.523338 0.189527
42 1 0.110513 0.491251 0.0388246
48 1 0.244059 0.506335 0.11563
52 1 0.391757 0.527202 0.12794
46 1 0.316592 0.479834 0.0182405
69 1 0.381323 0.586693 0.0018823
51 1 0.519858 0.427939 0.0958112
150 1 0.513537 0.541365 0.1749
49 1 0.40611 0.432495 0.0127623
55 1 0.666077 0.406548 0.0973301
56 1 0.610944 0.511128 0.106505
75 1 0.726288 0.591397 0.119018
60 1 0.762441 0.487221 0.153794
57 1 0.765819 0.421994 0.0217678
41 1 0.964874 0.413133 0.00356762
158 1 0.895835 0.471523 0.19344
79 1 0.850301 0.598335 0.136359
58 1 0.859017 0.501471 0.0524177
63 1 0.124659 0.630837 0.0955641
68 1 0.149141 0.739285 0.0689882
83 1 0.0155888 0.769432 0.0954476
67 1 0.262079 0.624709 0.134904
72 1 0.377141 0.654534 0.111055
87 1 0.295932 0.744152 0.105272
89 1 0.364165 0.793138 0.0260009
71 1 0.489728 0.620334 0.0922799
91 1 0.497248 0.749118 0.0874622
189 1 0.409421 0.794204 0.168849
93 1 0.590345 0.760004 0.0118492
76 1 0.605622 0.664288 0.0998282
80 1 0.77965 0.716301 0.127247
95 1 0.649409 0.782497 0.11127
74 1 0.703203 0.670515 0.0037255
64 1 0.993007 0.623367 0.0815568
178 1 0.919483 0.711167 0.1716
78 1 0.894166 0.693802 0.0511853
88 1 0.132374 0.853548 0.141215
105 1 0.192506 0.992153 0.16014
82 1 0.118253 0.868394 0.0470611
86 1 0.28792 0.915323 0.0242388
186 1 0.256597 0.878061 0.147802
92 1 0.416126 0.907293 0.0920524
96 1 0.553928 0.884829 0.0995641
193 1 0.540335 0.810241 0.189204
15 1 0.657925 0.971497 0.0673015
117 1 0.786204 0.957837 0.196777
100 1 0.77514 0.880073 0.0981267
17 1 0.794958 0.985222 0.0402501
113 1 0.623564 0.976365 0.190905
19 1 0.874255 0.995788 0.149752
81 1 0.970229 0.810957 0.00773282
84 1 0.961664 0.923136 0.110948
99 1 0.872025 0.806945 0.0898561
103 1 0.0965505 0.0233126 0.28229
202 1 0.115011 0.0951077 0.397286
201 1 0.00163917 0.00349243 0.368518
123 1 0.0977154 0.1636 0.302091
108 1 0.202778 0.11863 0.27102
112 1 0.363869 0.104455 0.262335
206 1 0.301483 0.0716585 0.39299
225 1 0.223359 0.188899 0.392501
205 1 0.209225 0.0268382 0.380719
229 1 0.375493 0.188126 0.363508
110 1 0.471189 0.107913 0.235896
131 1 0.531214 0.178648 0.316267
111 1 0.54424 0.019491 0.280102
209 1 0.421673 0.0182647 0.349357
116 1 0.612666 0.124898 0.233952
120 1 0.777656 0.131326 0.264227
115 1 0.685848 0.00381599 0.298507
214 1 0.656212 0.118831 0.351098
101 1 0.950211 0.00259485 0.227889
118 1 0.8924 0.123912 0.229835
104 1 0.99514 0.121577 0.293889
119 1 0.833973 0.00421273 0.30019
218 1 0.90135 0.0943117 0.36199
125 1 0.17925 0.240479 0.244049
143 1 0.105272 0.382053 0.276898
124 1 0.0229373 0.26844 0.282351
222 1 0.123258 0.284977 0.374741
128 1 0.239786 0.386594 0.278447
127 1 0.291738 0.239833 0.271409
147 1 0.373025 0.385377 0.296947
226 1 0.254356 0.302088 0.359485
130 1 0.527069 0.303569 0.220035
132 1 0.433975 0.302546 0.353143
129 1 0.423732 0.232714 0.211815
136 1 0.58945 0.311982 0.336136
135 1 0.681686 0.242559 0.267359
155 1 0.690655 0.381279 0.328263
234 1 0.752801 0.301426 0.397753
138 1 0.866901 0.313552 0.208235
139 1 0.881312 0.219361 0.29446
140 1 0.819687 0.330727 0.331004
238 1 0.926988 0.303831 0.391902
159 1 0.971774 0.393834 0.294305
245 1 0.16338 0.427947 0.384027
241 1 0.0359623 0.404441 0.397845
148 1 0.195143 0.514589 0.295316
242 1 0.0838749 0.541378 0.323941
146 1 0.332636 0.499619 0.222548
167 1 0.306805 0.598443 0.284232
246 1 0.317042 0.477896 0.371752
153 1 0.580338 0.417046 0.214759
152 1 0.452745 0.517349 0.287959
151 1 0.519425 0.40363 0.326399
156 1 0.593031 0.496393 0.357787
173 1 0.597055 0.569682 0.224306
154 1 0.682631 0.478155 0.236707
177 1 0.782762 0.583448 0.253571
254 1 0.715767 0.528662 0.374036
144 1 0.9883 0.517206 0.253038
160 1 0.838548 0.454429 0.303824
179 1 0.920744 0.563574 0.340088
162 1 0.0800634 0.700878 0.205415
163 1 0.136828 0.659065 0.31437
183 1 0.0942136 0.783307 0.341582
185 1 0.186517 0.767652 0.221596
165 1 0.211755 0.632574 0.210283
166 1 0.33448 0.725756 0.242093
168 1 0.217148 0.774198 0.351953
266 1 0.314215 0.679657 0.367109
172 1 0.398688 0.752469 0.303374
169 1 0.409718 0.639142 0.2406
171 1 0.500794 0.612819 0.338436
170 1 0.529892 0.695727 0.264628
174 1 0.680472 0.691614 0.210785
197 1 0.772106 0.799406 0.237708
175 1 0.73218 0.640978 0.351706
176 1 0.61926 0.697385 0.313688
297 1 0.790917 0.744692 0.392242
281 1 0.969968 0.785943 0.381955
180 1 0.841096 0.678336 0.287699
161 1 0.974371 0.604331 0.203173
164 1 0.986652 0.674187 0.299738
199 1 0.889822 0.790363 0.301771
181 1 0.00370691 0.808773 0.208328
182 1 0.0492167 0.896232 0.217507
184 1 0.0105814 0.894162 0.294293
282 1 0.119807 0.931214 0.365594
188 1 0.175565 0.889356 0.286226
107 1 0.260376 0.994949 0.272493
109 1 0.361928 0.986516 0.204982
187 1 0.283124 0.84052 0.232459
192 1 0.395819 0.914253 0.295096
286 1 0.314387 0.925642 0.371891
191 1 0.509016 0.812915 0.286707
190 1 0.476263 0.926881 0.208279
196 1 0.586299 0.910809 0.321644
195 1 0.670216 0.808449 0.305231
194 1 0.6863 0.882839 0.20482
200 1 0.753713 0.909591 0.333357
198 1 0.865304 0.865825 0.226951
298 1 0.901515 0.89025 0.363774
325 1 0.17961 0.162344 0.590046
204 1 0.00470019 0.105327 0.481682
321 1 0.00778652 0.19016 0.590303
302 1 0.0884152 0.0901916 0.565587
305 1 0.173542 0.00595273 0.577585
208 1 0.202328 0.0966191 0.501612
207 1 0.321548 0.0036828 0.497894
227 1 0.348664 0.181268 0.539745
212 1 0.457412 0.0257489 0.572028
210 1 0.477 0.131281 0.400962
231 1 0.419841 0.10713 0.476117
216 1 0.572506 0.11635 0.483139
213 1 0.542339 0.00662097 0.418993
217 1 0.716258 0.0167049 0.421555
237 1 0.791761 0.178373 0.400375
235 1 0.758611 0.194419 0.499837
333 1 0.649563 0.171418 0.572376
314 1 0.717548 0.0799236 0.549398
337 1 0.842885 0.189616 0.593097
220 1 0.825889 0.0546611 0.460129
318 1 0.896061 0.0747004 0.568875
301 1 0.989361 0.0228607 0.597144
223 1 0.113036 0.235047 0.504436
322 1 0.129931 0.334342 0.58373
221 1 0.0132939 0.220174 0.401023
224 1 0.00248094 0.306004 0.516162
243 1 0.153537 0.378813 0.478486
228 1 0.240015 0.252835 0.510531
232 1 0.373314 0.266404 0.47634
247 1 0.318097 0.391452 0.436749
345 1 0.27712 0.383229 0.50258
349 1 0.36884 0.344149 0.573878
230 1 0.517941 0.257491 0.448659
251 1 0.506977 0.354779 0.546568
330 1 0.495838 0.200906 0.545702
233 1 0.638913 0.219538 0.417081
236 1 0.657103 0.28848 0.491933
239 1 0.91297 0.208597 0.476786
240 1 0.844631 0.299179 0.512126
244 1 0.0607369 0.512242 0.470521
341 1 0.0260874 0.429554 0.54286
342 1 0.12214 0.492873 0.5692
248 1 0.21472 0.507916 0.465626
269 1 0.388669 0.548897 0.400226
252 1 0.387581 0.47539 0.518635
267 1 0.283421 0.592443 0.484974
346 1 0.270643 0.45452 0.589421
249 1 0.461 0.417176 0.443454
250 1 0.504563 0.542155 0.464523
350 1 0.520489 0.498886 0.593712
256 1 0.638832 0.534908 0.5307
255 1 0.744677 0.406793 0.507287
253 1 0.606082 0.407225 0.455353
354 1 0.730617 0.480295 0.594552
257 1 0.787939 0.441163 0.40825
258 1 0.92921 0.482913 0.410653
277 1 0.821249 0.592961 0.409154
259 1 0.908057 0.413878 0.513067
260 1 0.809506 0.52785 0.516852
279 1 0.933131 0.587844 0.494984
358 1 0.90329 0.509494 0.596624
265 1 0.187806 0.618944 0.406809
261 1 0.0299854 0.626652 0.423459
262 1 0.123515 0.753372 0.454305
263 1 0.129269 0.6459 0.525329
264 1 0.000460592 0.741721 0.501222
361 1 0.0374491 0.610804 0.590016
268 1 0.240144 0.711084 0.494517
272 1 0.385094 0.678564 0.500993
287 1 0.368321 0.792268 0.537168
293 1 0.563251 0.76121 0.403484
271 1 0.500956 0.642306 0.550685
270 1 0.47011 0.678693 0.422521
291 1 0.483134 0.772088 0.523645
276 1 0.587413 0.715556 0.519235
275 1 0.711098 0.629222 0.500194
273 1 0.608437 0.601515 0.426832
274 1 0.672056 0.755796 0.442709
278 1 0.906193 0.696107 0.439011
280 1 0.829859 0.687406 0.523213
203 1 0.0837437 0.98851 0.486362
283 1 0.137507 0.806936 0.599434
288 1 0.1821 0.915516 0.435219
284 1 0.0384235 0.869113 0.466832
285 1 0.275059 0.817239 0.450285
386 1 0.228571 0.893916 0.552335
289 1 0.408902 0.800919 0.412138
292 1 0.40689 0.932976 0.487878
290 1 0.479149 0.876877 0.409262
211 1 0.589462 0.995092 0.519233
390 1 0.461591 0.900475 0.584686
296 1 0.551612 0.865073 0.50981
294 1 0.641589 0.88449 0.414197
393 1 0.652243 0.80537 0.572277
295 1 0.771692 0.810617 0.492916
215 1 0.679938 0.941372 0.51835
394 1 0.760206 0.877466 0.591811
299 1 0.893054 0.833301 0.489523
219 1 0.958587 0.967684 0.480476
300 1 0.824376 0.929553 0.468262
398 1 0.921641 0.907952 0.57659
308 1 0.162622 0.039796 0.689997
323 1 0.108293 0.172294 0.688687
304 1 0.00627499 0.0862577 0.701981
425 1 0.174706 0.198013 0.775459
306 1 0.274459 0.0758649 0.608894
327 1 0.295388 0.191 0.666211
307 1 0.313367 0.0109734 0.705599
406 1 0.275168 0.114771 0.79176
329 1 0.424044 0.157198 0.645195
310 1 0.542112 0.103937 0.635573
312 1 0.427544 0.0841 0.738145
410 1 0.558134 0.093571 0.757456
313 1 0.626598 0.0284417 0.642062
316 1 0.65705 0.120242 0.70142
320 1 0.783854 0.114101 0.670613
437 1 0.798162 0.191054 0.763001
339 1 0.939861 0.18638 0.709808
319 1 0.886025 0.0212105 0.734905
328 1 0.179147 0.30983 0.730498
324 1 0.0598039 0.297084 0.678467
429 1 0.396293 0.209254 0.777989
326 1 0.247689 0.305199 0.641338
426 1 0.309203 0.320291 0.736933
331 1 0.536955 0.237309 0.702738
332 1 0.401798 0.270906 0.658926
351 1 0.498234 0.366791 0.668562
433 1 0.640157 0.209342 0.792641
336 1 0.600501 0.280704 0.601562
335 1 0.699311 0.266874 0.71261
334 1 0.739254 0.321465 0.602437
453 1 0.608029 0.351497 0.767885
353 1 0.62921 0.394964 0.609588
340 1 0.842717 0.284168 0.70575
338 1 0.935266 0.280886 0.619846
359 1 0.95757 0.383881 0.682793
457 1 0.83515 0.39402 0.78628
343 1 0.160876 0.419 0.67217
348 1 0.174952 0.565833 0.68052
344 1 0.0300114 0.468554 0.663004
363 1 0.0583559 0.595682 0.72591
445 1 0.171415 0.427972 0.793472
442 1 0.0531934 0.462846 0.784985
369 1 0.382046 0.575419 0.601777
347 1 0.272671 0.443468 0.692383
367 1 0.312864 0.556788 0.725559
449 1 0.403034 0.415353 0.775886
352 1 0.408005 0.457864 0.655179
450 1 0.515748 0.468343 0.748262
469 1 0.403048 0.566952 0.783723
371 1 0.500609 0.567016 0.703212
355 1 0.708161 0.424654 0.716405
356 1 0.622035 0.480873 0.685289
473 1 0.612534 0.580302 0.753003
375 1 0.729884 0.597207 0.679161
360 1 0.812597 0.515871 0.707995
357 1 0.827959 0.415525 0.630106
458 1 0.919616 0.527732 0.766976
362 1 0.153081 0.689894 0.626414
364 1 0.0286998 0.715448 0.72343
365 1 0.241726 0.60159 0.614051
385 1 0.262964 0.784571 0.605921
366 1 0.297461 0.675994 0.629608
368 1 0.209563 0.705266 0.72915
372 1 0.355911 0.697538 0.712911
370 1 0.448766 0.694032 0.635423
373 1 0.593677 0.63217 0.646455
470 1 0.499111 0.671289 0.767246
391 1 0.494861 0.795109 0.665812
489 1 0.423956 0.768427 0.780075
374 1 0.722212 0.716495 0.610408
376 1 0.626203 0.749377 0.695526
380 1 0.793639 0.72348 0.72044
474 1 0.689807 0.725432 0.770373
397 1 0.846971 0.786708 0.61143
379 1 0.911067 0.638812 0.704405
377 1 0.829456 0.618519 0.623112
378 1 0.950815 0.696933 0.60007
478 1 0.877879 0.726131 0.797414
381 1 0.0216184 0.813034 0.625172
382 1 0.0666116 0.927942 0.620971
303 1 0.0954268 0.951659 0.757249
383 1 0.128609 0.822379 0.71788
389 1 0.382271 0.824894 0.64017
309 1 0.348575 0.956523 0.618458
387 1 0.291905 0.803298 0.744652
388 1 0.233072 0.900818 0.686866
392 1 0.421362 0.902083 0.745994
311 1 0.50279 0.97863 0.711552
396 1 0.590082 0.896108 0.631194
493 1 0.552894 0.874232 0.780668
395 1 0.709321 0.84192 0.698849
413 1 0.631105 0.993321 0.774279
315 1 0.735128 0.995647 0.655218
417 1 0.768149 0.994502 0.781568
399 1 0.927914 0.81342 0.679654
384 1 0.982835 0.939182 0.725237
317 1 0.829771 0.97833 0.60827
400 1 0.834276 0.890196 0.726574
481 1 0.982509 0.837551 0.776142
402 1 0.0927119 0.0775518 0.806282
408 1 0.197129 0.113572 0.892386