ITEM: TIMESTEP
0
ITEM: NUMBER OF ATOMS
500
ITEM: BOX BOUNDS pp pp pp
0.0000000000000000e+00 1.5874010519681994e+01
0.0000000000000000e+00 1.5874010519681994e+01
0.0000000000000000e+00 1.5874010519681994e+01
ITEM: ATOMS id type xs ys zs
122 1 0.01503 0.0731924 0.0197519
198 1 0.139532 0.0782092 0.152846
184 1 0.12177 0.172495 0.0838014
408 1 0.120208 0.0723421 0.0107236
412 1 0.27 0.116951 0.0695402
3 1 0.28042 0.0182752 0.186307
4 1 0.346768 0.184405 0.159539
7 1 0.383106 0.0409288 0.0867538
27 1 0.402195 0.131089 0.185734
429 1 0.496664 0.110292 0.0822234
158 1 0.59869 0.161287 0.0138582
210 1 0.50395 0.000498401 0.0925963
155 1 0.61565 0.0514959 0.101601
55 1 0.753825 0.150444 0.100856
31 1 0.650413 0.163365 0.157259
335 1 0.754588 0.0486902 0.0238418
416 1 0.785732 0.00548418 0.131165
120 1 0.992339 0.104354 0.133862
39 1 0.871758 0.12041 0.114436
20 1 0.936661 0.190024 0.00857333
18 1 0.879325 0.0390868 0.00389312
85 1 0.00887205 0.221528 0.0961046
247 1 0.0378559 0.341591 0.0909143
185 1 0.170884 0.33226 0.0916077
121 1 0.230144 0.247706 0.130884
48 1 0.362271 0.317745 0.0835453
127 1 0.275862 0.372817 0.161585
70 1 0.450735 0.219058 0.0564981
59 1 0.511498 0.357802 0.105645
186 1 0.54626 0.237098 0.131193
159 1 0.583962 0.3627 0.198889
125 1 0.429706 0.312287 0.187239
37 1 0.795851 0.240373 0.161181
35 1 0.657341 0.246855 0.0332649
245 1 0.674815 0.317383 0.139419
57 1 0.798476 0.377371 0.124746
423 1 0.901319 0.358785 0.101066
43 1 0.819414 0.262817 0.0375538
104 1 0.927835 0.222031 0.149865
144 1 0.043555 0.448359 0.135689
273 1 0.173546 0.479245 0.0937025
166 1 0.120961 0.576341 0.0151722
108 1 0.294073 0.568572 0.191532
152 1 0.28782 0.502853 0.0813419
46 1 0.375896 0.449318 0.0654501
130 1 0.37874 0.446332 0.188268
23 1 0.525867 0.482009 0.0897237
30 1 0.455343 0.581436 0.189315
432 1 0.599999 0.560883 0.179795
171 1 0.418841 0.566455 0.0699983
439 1 0.694453 0.453795 0.0364778
411 1 0.640913 0.444411 0.126667
79 1 0.746305 0.543976 0.161349
28 1 0.661291 0.595641 0.0777355
168 1 0.98404 0.434064 0.0113679
195 1 0.853183 0.502456 0.121645
183 1 0.998993 0.530069 0.0837861
62 1 0.834746 0.449691 0.00465937
165 1 0.0427609 0.632185 0.163905
282 1 0.151468 0.729624 0.0850127
287 1 0.166047 0.611705 0.149909
65 1 0.00245619 0.769003 0.0876066
54 1 0.0489592 0.651916 0.0377058
182 1 0.260189 0.754309 0.148421
463 1 0.226152 0.63254 0.0261346
146 1 0.323707 0.656845 0.0858907
73 1 0.389886 0.771899 0.125252
151 1 0.517439 0.649486 0.102422
395 1 0.513075 0.791147 0.0277367
446 1 0.428981 0.70436 0.00141903
170 1 0.609614 0.723034 0.106411
174 1 0.799098 0.623356 0.0900104
344 1 0.728283 0.751335 0.074871
17 1 0.922774 0.621066 0.103209
100 1 0.8676 0.744472 0.0731908
419 1 0.060099 0.979468 0.0816819
285 1 0.103932 0.826384 0.14099
403 1 0.0993398 0.901068 0.0104531
187 1 0.220049 0.850812 0.0744094
40 1 0.202805 0.995828 0.087127
262 1 0.340603 0.879806 0.140641
364 1 0.309017 0.975699 0.0436292
491 1 0.34094 0.855077 0.0205544
91 1 0.417273 0.975103 0.194611
110 1 0.458787 0.879198 0.0790259
66 1 0.512391 0.822021 0.160837
214 1 0.584616 0.875908 0.134353
81 1 0.695803 0.944182 0.0941808
71 1 0.692015 0.814452 0.19936
74 1 0.688939 0.827696 0.0381236
83 1 0.951834 0.875831 0.0383109
480 1 0.807159 0.850898 0.145611
82 1 0.816261 0.881472 0.0194379
264 1 0.90787 0.970133 0.108781
148 1 0.973419 0.891799 0.159235
239 1 0.0909383 0.081607 0.276123
137 1 0.10298 0.198568 0.207295
227 1 0.190071 0.177067 0.355849
5 1 0.234249 0.132266 0.230468
191 1 0.346306 0.0930504 0.291146
300 1 0.209791 0.0299517 0.304221
10 1 0.525938 0.101559 0.227545
86 1 0.464323 0.191187 0.279154
188 1 0.526913 0.0248493 0.310424
232 1 0.564167 0.190094 0.387454
233 1 0.615084 0.0906661 0.335013
240 1 0.759459 0.134627 0.349172
133 1 0.669151 0.0783989 0.2428
105 1 0.792691 0.110006 0.212706
33 1 0.757188 0.00254032 0.330334
136 1 0.994973 0.172599 0.265913
135 1 0.96634 0.127841 0.37041
204 1 0.871114 0.0510743 0.338009
199 1 0.939992 0.0685549 0.232678
115 1 0.861333 0.186414 0.281937
143 1 0.162032 0.387289 0.229402
222 1 0.0951385 0.267153 0.335454
269 1 0.126853 0.320301 0.358933
265 1 0.0194055 0.307881 0.208798
12 1 0.35517 0.208189 0.310492
422 1 0.212015 0.274591 0.25694
106 1 0.328047 0.341994 0.280038
156 1 0.597559 0.231762 0.271257
126 1 0.500611 0.363905 0.270205
237 1 0.436931 0.297375 0.331795
249 1 0.597749 0.318083 0.353069
433 1 0.719143 0.22808 0.276948
56 1 0.694005 0.365753 0.25882
353 1 0.768763 0.331571 0.386632
29 1 0.85313 0.319134 0.238878
223 1 0.962277 0.285325 0.308764
179 1 0.855344 0.359916 0.333766
154 1 0.0114775 0.410137 0.360133
167 1 0.195305 0.425657 0.335179
124 1 0.0640027 0.454024 0.284534
128 1 0.0904769 0.553824 0.260073
149 1 0.191851 0.493144 0.208708
129 1 0.218932 0.571765 0.308185
107 1 0.340403 0.484863 0.30093
34 1 0.498537 0.466018 0.212454
51 1 0.40382 0.587628 0.301296
189 1 0.448083 0.469592 0.356564
349 1 0.538614 0.58569 0.292794
150 1 0.617553 0.473639 0.307216
279 1 0.7069 0.423059 0.390699
177 1 0.686704 0.572691 0.287683
36 1 0.757778 0.430858 0.23244
197 1 0.824761 0.579462 0.262114
44 1 0.952967 0.533127 0.215545
38 1 0.821547 0.477311 0.332381
123 1 0.946243 0.414521 0.241564
202 1 0.95677 0.546689 0.344936
241 1 0.00656358 0.642729 0.308358
192 1 0.127652 0.707719 0.251626
246 1 0.155479 0.662738 0.393901
92 1 0.0297197 0.745705 0.245263
366 1 0.188339 0.786048 0.362875
131 1 0.370286 0.667418 0.210247
211 1 0.2487 0.681992 0.256539
289 1 0.263156 0.687236 0.394974
173 1 0.379441 0.706245 0.357562
266 1 0.484452 0.699768 0.212297
176 1 0.47926 0.701801 0.372272
451 1 0.491524 0.790294 0.301243
471 1 0.693065 0.675971 0.200328
254 1 0.611206 0.712556 0.276162
164 1 0.618688 0.621473 0.393402
180 1 0.741441 0.79993 0.326485
53 1 0.726026 0.667359 0.35012
99 1 0.80131 0.720199 0.205551
14 1 0.919883 0.767834 0.217011
97 1 0.923955 0.642701 0.233483
261 1 0.862702 0.717719 0.338122
68 1 0.192044 0.923443 0.20149
283 1 0.0968276 0.86371 0.288199
263 1 0.0661371 0.977146 0.203142
281 1 0.0514052 0.990447 0.352129
250 1 0.365225 0.800156 0.253609
318 1 0.205875 0.956801 0.31634
390 1 0.20234 0.811326 0.24838
19 1 0.319002 0.915345 0.272042
288 1 0.302812 0.838198 0.364072
207 1 0.373101 0.98894 0.356419
209 1 0.452279 0.90682 0.29553
112 1 0.557226 0.937686 0.224034
216 1 0.428652 0.847768 0.386567
113 1 0.70885 0.962368 0.224236
193 1 0.601026 0.81211 0.292218
393 1 0.712857 0.881448 0.374987
274 1 0.605868 0.935489 0.318067
13 1 0.811854 0.86042 0.24978
194 1 0.971769 0.809041 0.366632
138 1 0.970471 0.912313 0.290618
15 1 0.864341 0.968606 0.243505
217 1 0.852574 0.887296 0.390312
119 1 0.0712502 0.136824 0.406162
141 1 0.123929 0.01976 0.42637
228 1 0.103109 0.0982555 0.522602
205 1 0.193292 0.00442205 0.54881
359 1 0.0625286 0.199804 0.596967
221 1 0.33268 0.172036 0.433927
208 1 0.200138 0.182624 0.485196
297 1 0.252877 0.0705514 0.442095
200 1 0.273124 0.102824 0.581445
225 1 0.380678 0.170268 0.538787
346 1 0.378525 0.0483917 0.492974
102 1 0.339772 0.00211615 0.578398
101 1 0.459346 0.104763 0.408574
206 1 0.579668 0.0765361 0.487323
380 1 0.496108 0.146801 0.542637
236 1 0.698805 0.105033 0.448201
316 1 0.798183 0.186131 0.516252
414 1 0.632007 0.196734 0.562751
332 1 0.78637 0.0101278 0.472068
413 1 0.722996 0.0751064 0.561179
140 1 0.992433 0.109497 0.506081
215 1 0.911056 0.0173456 0.553358
203 1 0.854543 0.0841414 0.453451
358 1 0.100985 0.269732 0.483331
242 1 0.0473027 0.370668 0.516823
268 1 0.140167 0.398754 0.446896
321 1 0.264825 0.283429 0.409186
352 1 0.227361 0.33167 0.532732
326 1 0.31818 0.277715 0.517505
252 1 0.31975 0.391825 0.566865
132 1 0.283397 0.399023 0.411824
229 1 0.441669 0.232479 0.429074
256 1 0.413117 0.364299 0.408377
255 1 0.564213 0.284341 0.490387
302 1 0.43284 0.311214 0.557658
235 1 0.714987 0.295827 0.521643
157 1 0.674138 0.240297 0.42811
162 1 0.851424 0.216255 0.408517
238 1 0.980141 0.228352 0.429272
160 1 0.915365 0.352077 0.437867
201 1 0.934417 0.22821 0.539567
314 1 0.835484 0.322067 0.521157
181 1 0.114601 0.524361 0.405008
248 1 0.00195926 0.50428 0.482788
348 1 0.107228 0.596859 0.521946
58 1 0.114367 0.483081 0.547093
350 1 0.307177 0.56505 0.405115
388 1 0.23681 0.503082 0.49369
172 1 0.303241 0.557291 0.581546
275 1 0.382381 0.490218 0.484602
230 1 0.535163 0.401645 0.426093
257 1 0.478478 0.423038 0.525907
476 1 0.518379 0.536254 0.571453
251 1 0.58143 0.502643 0.439411
196 1 0.472546 0.558594 0.422541
292 1 0.418182 0.599694 0.598821
277 1 0.732109 0.531676 0.427723
290 1 0.632151 0.403372 0.523366
455 1 0.750181 0.443995 0.511255
175 1 0.612066 0.592454 0.521944
338 1 0.978678 0.49578 0.59905
354 1 0.82592 0.57676 0.57738
253 1 0.887399 0.468367 0.532509
244 1 0.876787 0.46144 0.411785
342 1 0.0606584 0.755986 0.41303
163 1 0.0255428 0.629195 0.405977
492 1 0.150381 0.774141 0.500705
341 1 0.212275 0.665008 0.534856
272 1 0.371958 0.644528 0.482939
271 1 0.361844 0.783829 0.468591
310 1 0.259832 0.78701 0.55168
114 1 0.466926 0.770885 0.532227
293 1 0.492004 0.655333 0.498169
96 1 0.604753 0.750531 0.405517
284 1 0.771205 0.770932 0.446175
178 1 0.731026 0.636914 0.507543
278 1 0.64305 0.75501 0.504582
224 1 0.933618 0.626663 0.495802
468 1 0.997529 0.750472 0.508592
377 1 0.882768 0.730514 0.446857
80 1 0.830342 0.606018 0.414204
462 1 0.821424 0.724754 0.557549
386 1 0.185625 0.906747 0.467401
134 1 0.0338748 0.968564 0.529245
482 1 0.0554374 0.845797 0.576736
305 1 0.0746669 0.885714 0.436563
286 1 0.301237 0.954154 0.461283
234 1 0.381361 0.898714 0.487559
118 1 0.239846 0.906551 0.597581
111 1 0.553039 0.863771 0.41045
400 1 0.477049 0.980079 0.54553
103 1 0.500449 0.976433 0.424062
270 1 0.52773 0.848498 0.520365
313 1 0.640053 0.95508 0.451596
394 1 0.619566 0.983509 0.57289
374 1 0.670792 0.868731 0.52033
317 1 0.930773 0.873214 0.499394
95 1 0.806195 0.87222 0.498865
139 1 0.929851 0.982531 0.425154
220 1 0.00165731 0.0495669 0.627982
347 1 0.15387 0.181383 0.693172
500 1 0.0767271 0.0023349 0.768098
418 1 0.101324 0.0859863 0.654877
488 1 0.10008 0.122254 0.797321
485 1 0.23039 0.0282135 0.678539
405 1 0.340432 0.0865538 0.715377
426 1 0.285647 0.198658 0.686358
312 1 0.454996 0.0690718 0.655477
315 1 0.512432 0.144344 0.757428
337 1 0.58335 0.0991268 0.626811
334 1 0.562232 0.00392623 0.701409
415 1 0.653491 0.122697 0.724396
431 1 0.783235 0.095634 0.706053
417 1 0.74267 0.184253 0.635266
384 1 0.696953 0.00475732 0.709402
402 1 0.975216 0.141244 0.719817
301 1 0.873136 0.151347 0.621263
443 1 0.871139 0.122313 0.784483
320 1 0.88361 0.0248378 0.682804
308 1 0.19853 0.236937 0.609348
345 1 0.0911196 0.331007 0.619502
445 1 0.0614953 0.274672 0.713362
447 1 0.209394 0.3196 0.724229
328 1 0.345032 0.328382 0.680473
25 1 0.335447 0.306577 0.778126
330 1 0.408481 0.206591 0.65624
333 1 0.437584 0.271585 0.778613
231 1 0.46688 0.355798 0.686743
369 1 0.529757 0.244995 0.64455
8 1 0.568078 0.269405 0.791915
373 1 0.569412 0.363735 0.609535
356 1 0.584977 0.389611 0.763424
331 1 0.662666 0.205901 0.74677
357 1 0.655899 0.293601 0.664391
258 1 0.731378 0.342961 0.775716
438 1 0.788126 0.234629 0.74013
219 1 0.942517 0.270279 0.698198
24 1 0.940079 0.335787 0.604519
42 1 0.810614 0.302911 0.651296
60 1 0.88172 0.394256 0.715742
259 1 0.0435501 0.40599 0.684168
322 1 0.100229 0.551768 0.664883
368 1 0.148137 0.440109 0.718182
385 1 0.0242236 0.589725 0.721056
459 1 0.00693942 0.43053 0.790822
49 1 0.320717 0.461265 0.723615
339 1 0.206131 0.419763 0.62016
267 1 0.216032 0.55497 0.744784
367 1 0.21557 0.560262 0.617379
477 1 0.354851 0.579465 0.720215
226 1 0.417542 0.475196 0.631107
76 1 0.480369 0.55852 0.723441
470 1 0.442803 0.431262 0.769385
371 1 0.548613 0.484086 0.666721
295 1 0.673645 0.506901 0.607563
378 1 0.636167 0.511246 0.747538
360 1 0.723258 0.419327 0.666522
457 1 0.739682 0.544238 0.709198
442 1 0.820698 0.43497 0.604559
430 1 0.819373 0.451355 0.754595
483 1 0.890447 0.540649 0.684621
343 1 0.941332 0.524739 0.778385
376 1 0.0920908 0.682624 0.603516
298 1 0.159423 0.794793 0.633343
464 1 0.0831529 0.707758 0.736193
465 1 0.196151 0.766534 0.78492
406 1 0.197578 0.663983 0.68699
489 1 0.329131 0.686121 0.620402
383 1 0.3136 0.692531 0.777517
307 1 0.290172 0.79396 0.705717
291 1 0.453124 0.734519 0.66016
458 1 0.585647 0.726213 0.603788
370 1 0.587963 0.614903 0.668085
296 1 0.453742 0.686992 0.768901
391 1 0.585547 0.672458 0.768198
276 1 0.590019 0.762113 0.688616
280 1 0.724363 0.749836 0.619499
294 1 0.692255 0.64141 0.629683
397 1 0.721658 0.779512 0.728161
493 1 0.722868 0.644956 0.763997
387 1 0.963372 0.62567 0.605537
375 1 0.824933 0.660209 0.680779
361 1 0.951881 0.688826 0.734291
299 1 0.933659 0.768336 0.632579
9 1 0.820837 0.731443 0.78932
218 1 0.102501 0.930153 0.643666
243 1 0.0731224 0.84113 0.734972
392 1 0.367448 0.840196 0.621472
401 1 0.211753 0.899213 0.716053
309 1 0.34743 0.93372 0.706388
372 1 0.398931 0.82123 0.789152
212 1 0.454546 0.952444 0.659425
303 1 0.485327 0.833951 0.71891
116 1 0.562834 0.869102 0.62891
329 1 0.442562 0.957103 0.78764
398 1 0.689991 0.890576 0.645225
213 1 0.608055 0.883802 0.771988
494 1 0.782197 0.972861 0.604698
311 1 0.754651 0.895692 0.786638
382 1 0.94099 0.900899 0.623574
461 1 0.916495 0.814104 0.767321
452 1 0.989797 0.924236 0.714969
484 1 0.830185 0.854457 0.629907
478 1 0.829678 0.887773 0.769613
147 1 0.0658258 0.136126 0.945921
424 1 0.0113816 0.185354 0.826601
306 1 0.116579 0.0090172 0.914998
404 1 0.229144 0.134486 0.920297
325 1 0.212638 0.0574995 0.80251
351 1 0.343101 0.172698 0.833557
323 1 0.250191 0.0408215 0.941825
467 1 0.354068 0.0401329 0.829853
327 1 0.208181 0.197886 0.803318
190 1 0.447732 0.110138 0.829044
6 1 0.40463 0.106365 0.950718
72 1 0.524111 0.0804849 0.969737
496 1 0.551115 0.0426226 0.83431
490 1 0.606231 0.13044 0.874075
90 1 0.656537 0.0354461 0.964114
420 1 0.76205 0.144804 0.841188
117 1 0.744734 0.171524 0.95911
145 1 0.990008 0.0794073 0.879112
98 1 0.80284 0.0295894 0.853765
399 1 0.860311 0.146402 0.933899
41 1 0.182033 0.226476 0.994705
142 1 0.0235912 0.285146 0.962724
2 1 0.124922 0.334756 0.839034
441 1 0.10993 0.22832 0.894105
428 1 0.153534 0.360161 0.979704
22 1 0.0101526 0.398281 0.899485
47 1 0.335785 0.231047 0.994063
52 1 0.291942 0.359753 0.990076
425 1 0.244714 0.283397 0.895315
109 1 0.377448 0.265112 0.916564
32 1 0.598464 0.366625 0.99878
93 1 0.507752 0.215111 0.899539
498 1 0.524881 0.268337 0.97135
340 1 0.507076 0.354296 0.852957
435 1 0.445225 0.356611 0.971501
436 1 0.738524 0.358395 0.983483
434 1 0.651258 0.262308 0.886244
440 1 0.779418 0.290133 0.890708
410 1 0.645406 0.385994 0.876398
21 1 0.892664 0.222516 0.868208
437 1 0.883712 0.352113 0.958015
304 1 0.989565 0.298042 0.815903
453 1 0.865047 0.335385 0.844754
64 1 0.1293 0.464159 0.981216
427 1 0.126649 0.594035 0.811884
363 1 0.126463 0.472595 0.847973
479 1 0.0182045 0.537604 0.928517
61 1 0.033609 0.561007 0.862111
26 1 0.237909 0.411034 0.832049
336 1 0.356781 0.406877 0.877623
450 1 0.22263 0.544513 0.91798
324 1 0.251544 0.437857 0.982685
469 1 0.313796 0.53013 0.846967
355 1 0.390467 0.503774 0.957928
260 1 0.557358 0.508336 0.841373
460 1 0.48805 0.46049 0.940679
169 1 0.513541 0.577038 0.984742
389 1 0.428024 0.559153 0.85766
63 1 0.702229 0.470202 0.862427
473 1 0.617106 0.527741 0.96158
153 1 0.759316 0.557358 0.977116
454 1 0.785434 0.456548 0.893906
449 1 0.790097 0.570435 0.845036
161 1 0.899936 0.489807 0.888976
444 1 0.908849 0.588496 0.969684
407 1 0.0251738 0.676291 0.889582
466 1 0.142847 0.700005 0.906092
88 1 0.170788 0.793355 0.964816
379 1 0.0381247 0.794435 0.842664
381 1 0.0504136 0.791019 0.987656
45 1 0.344173 0.602536 0.97072
50 1 0.259036 0.658536 0.866195
87 1 0.280197 0.756999 0.974418
365 1 0.530074 0.640003 0.851193
69 1 0.400384 0.687339 0.891431
77 1 0.535692 0.782298 0.837154
456 1 0.560971 0.694143 0.928292
495 1 0.691286 0.699154 0.970393
474 1 0.693054 0.759122 0.836134
448 1 0.66518 0.621898 0.876916
78 1 0.791174 0.791342 0.92319
94 1 0.812247 0.667562 0.951133
362 1 0.900848 0.644308 0.859484
75 1 0.910996 0.743766 0.961501
486 1 0.154593 0.888378 0.846433
1 1 0.0261944 0.932284 0.870409
472 1 0.287462 0.811675 0.86707
89 1 0.269487 0.923092 0.81267
84 1 0.228005 0.918258 0.950656
67 1 0.34914 0.917806 0.907568
16 1 0.555656 0.930716 0.999123
409 1 0.454103 0.823904 0.913447
11 1 0.43245 0.96768 0.953494
421 1 0.52354 0.92984 0.880586
396 1 0.677257 0.977213 0.838172
319 1 0.622912 0.828144 0.937319
497 1 0.668084 0.91479 0.927982
487 1 0.788223 0.949347 0.931323
499 1 0.925343 0.998997 0.811378
481 1 0.938239 0.957365 0.948818
475 1 0.918863 0.843172 0.881818
ITEM: TIMESTEP
1000
ITEM: NUMBER OF ATOMS
500
ITEM: BOX BOUNDS pp pp pp
-5.4778387302611975e-04 1.5874558303555075e+01
-5.4778387302611975e-04 1.5874558303555075e+01
-5.4778387302611975e-04 1.5874558303555075e+01
ITEM: ATOMS id type xs ys zs
198 1 0.151281 0.0962599 0.143368
120 1 0.0194083 0.0148516 0.138508
85 1 0.0160473 0.155057 0.153342
306 1 0.0698427 0.132529 0.00149485
84 1 0.108737 0.0441775 0.0162358
408 1 0.24547 0.13139 0.0340367
412 1 0.324987 0.187083 0.0116941
3 1 0.265426 0.0742201 0.137192
7 1 0.296991 0.190792 0.197587
6 1 0.316559 0.0528664 0.0905429
210 1 0.512442 0.0311233 0.0874218
70 1 0.424711 0.131908 0.104713
125 1 0.515334 0.183732 0.19961
91 1 0.450111 0.00369201 0.190221
10 1 0.586342 0.186573 0.112538
155 1 0.640431 0.0614927 0.0402262
31 1 0.780323 0.178134 0.0829405
480 1 0.774487 0.00189017 0.130134
188 1 0.602114 0.0388786 0.173934
133 1 0.69087 0.111075 0.158856
122 1 0.908747 0.00329751 0.0686175
416 1 0.855368 0.0775733 0.0394471
20 1 0.944902 0.147051 0.00647078
136 1 0.88565 0.153453 0.154129
247 1 0.09921 0.360897 0.0690267
121 1 0.191422 0.208744 0.128972
137 1 0.107586 0.284468 0.105486
142 1 0.000316199 0.231341 0.0183822
185 1 0.240828 0.300463 0.0309878
48 1 0.315957 0.298175 0.12957
127 1 0.207871 0.359876 0.12713
159 1 0.375389 0.392338 0.174933
52 1 0.393634 0.304356 0.0280045
429 1 0.545579 0.285556 0.0147778
59 1 0.511452 0.356836 0.153922
186 1 0.628531 0.27258 0.181493
37 1 0.724654 0.318747 0.191159
35 1 0.770115 0.364477 0.0385347
32 1 0.634004 0.365393 0.0875403
498 1 0.712833 0.22177 0.0944448
43 1 0.95711 0.375887 0.00980558
104 1 0.855581 0.316527 0.108163
265 1 0.974506 0.289778 0.178035
183 1 0.0328388 0.47061 0.0829513
143 1 0.143309 0.465016 0.166728
44 1 0.104601 0.577964 0.196069
144 1 0.210713 0.55563 0.109391
46 1 0.36318 0.447625 0.0500168
130 1 0.321465 0.462619 0.108375
23 1 0.530734 0.48366 0.144996
171 1 0.409721 0.562696 0.146192
460 1 0.490114 0.435334 0.00247215
473 1 0.539784 0.493687 0.0605043
456 1 0.448965 0.587271 0.0593318
245 1 0.652386 0.433998 0.0403497
57 1 0.787559 0.452916 0.0933936
79 1 0.679672 0.531375 0.105379
174 1 0.791249 0.59384 0.0392221
423 1 0.913978 0.432977 0.148101
62 1 0.89592 0.54163 0.0759678
444 1 0.92181 0.562175 0.0222962
166 1 0.0217418 0.60341 0.093776
165 1 0.0783719 0.74549 0.135077
282 1 0.17916 0.683919 0.199241
463 1 0.188429 0.67267 0.0587075
466 1 0.0699609 0.686487 0.0507543
287 1 0.304885 0.637853 0.137929
146 1 0.325154 0.605771 0.0623498
87 1 0.289175 0.744003 0.0463887
446 1 0.405214 0.719012 0.0327623
170 1 0.474355 0.720796 0.0916107
319 1 0.516145 0.728437 0.0225403
28 1 0.612145 0.641249 0.0667296
344 1 0.748379 0.634574 0.14529
74 1 0.709847 0.717363 0.0180559
193 1 0.624898 0.745893 0.139359
54 1 0.936434 0.713101 0.00662222
17 1 0.941002 0.685205 0.14375
100 1 0.825524 0.720608 0.0754163
97 1 0.802057 0.74184 0.19643
75 1 0.974874 0.784783 0.0331857
285 1 0.0234578 0.848036 0.115779
403 1 0.0523684 0.901976 0.0445542
40 1 0.148263 0.951684 0.138837
381 1 0.112813 0.850096 0.0596862
73 1 0.311054 0.812453 0.145814
187 1 0.222629 0.833579 0.0995921
262 1 0.285579 0.938254 0.164604
364 1 0.204924 0.94963 0.0424169
110 1 0.387376 0.911917 0.0962573
395 1 0.490517 0.930971 0.057757
491 1 0.413002 0.820604 0.00993273
66 1 0.469501 0.833291 0.180938
112 1 0.552816 0.897839 0.138614
16 1 0.591508 0.814488 0.0318862
214 1 0.714217 0.874465 0.0575829
81 1 0.63712 0.958131 0.0366869
71 1 0.705113 0.826085 0.185459
264 1 0.791593 0.95833 0.00739622
14 1 0.780253 0.858602 0.0432882
65 1 0.901386 0.825939 0.170609
419 1 0.882321 0.918536 0.08974
239 1 0.00309185 0.15491 0.269851
227 1 0.104244 0.14826 0.369834
5 1 0.1278 0.189745 0.260844
300 1 0.19569 0.00236656 0.268156
263 1 0.0820119 0.0427531 0.249041
281 1 0.0183365 0.0344237 0.350291
4 1 0.23392 0.142881 0.305952
221 1 0.357271 0.0626851 0.39965
297 1 0.247702 0.0359031 0.380214
326 1 0.309922 0.159916 0.392003
27 1 0.415453 0.0953495 0.283803
86 1 0.487702 0.179355 0.380331
156 1 0.577293 0.107559 0.277345
232 1 0.664272 0.174672 0.344257
233 1 0.690166 0.0453761 0.368121
240 1 0.782441 0.0895803 0.386614
433 1 0.720862 0.157428 0.267056
105 1 0.807077 0.0502645 0.213558
199 1 0.928026 0.0416343 0.256234
115 1 0.888548 0.149241 0.319276
222 1 0.111784 0.302374 0.25458
269 1 0.10689 0.341956 0.39346
179 1 0.000679104 0.313077 0.337686
124 1 0.0346563 0.368201 0.217687
12 1 0.362094 0.250247 0.327246
422 1 0.231653 0.283988 0.218496
106 1 0.254959 0.377371 0.293702
237 1 0.398741 0.338104 0.385184
34 1 0.385211 0.340144 0.254769
321 1 0.223 0.290812 0.379388
126 1 0.419761 0.215175 0.234311
249 1 0.563 0.272344 0.317414
150 1 0.540636 0.364217 0.272862
39 1 0.795693 0.230024 0.22239
56 1 0.702863 0.296092 0.310869
177 1 0.751348 0.388129 0.348346
29 1 0.841345 0.288177 0.308994
223 1 0.953996 0.273643 0.306606
38 1 0.893433 0.387388 0.386054
123 1 0.884234 0.36663 0.250616
167 1 0.0975018 0.455414 0.286341
128 1 0.140779 0.559963 0.261494
149 1 0.260839 0.468135 0.218576
129 1 0.237348 0.520063 0.338746
275 1 0.385971 0.555645 0.37986
108 1 0.402136 0.489774 0.224028
30 1 0.499684 0.510362 0.278361
432 1 0.571019 0.587847 0.212523
189 1 0.453856 0.448161 0.363778
251 1 0.593263 0.451321 0.387976
411 1 0.669887 0.486409 0.24209
349 1 0.630129 0.555065 0.355824
36 1 0.742418 0.411326 0.222745
277 1 0.737874 0.549121 0.316907
195 1 0.922632 0.581756 0.209411
202 1 0.968039 0.49649 0.260836
471 1 0.817046 0.513487 0.220258
181 1 0.977469 0.475184 0.348233
244 1 0.839781 0.490604 0.35947
92 1 0.0414882 0.746171 0.301167
366 1 0.153125 0.781799 0.300267
342 1 0.0234193 0.608264 0.36616
182 1 0.301863 0.74357 0.237022
192 1 0.219738 0.667 0.306057
131 1 0.35876 0.71006 0.211458
211 1 0.354744 0.607192 0.281554
173 1 0.34282 0.743986 0.366719
350 1 0.273757 0.63451 0.384859
151 1 0.465545 0.6332 0.231043
51 1 0.421049 0.673532 0.37265
250 1 0.480208 0.771644 0.307635
266 1 0.609284 0.741961 0.245249
254 1 0.695554 0.62499 0.250687
164 1 0.604231 0.638227 0.344476
96 1 0.717421 0.73256 0.288043
197 1 0.848745 0.642955 0.267475
241 1 0.989921 0.678828 0.223685
180 1 0.848591 0.740093 0.318009
80 1 0.956286 0.63671 0.348281
148 1 0.0468417 0.907874 0.261093
68 1 0.130254 0.866959 0.213882
318 1 0.0368943 0.917736 0.338065
191 1 0.330652 0.997043 0.25807
390 1 0.252672 0.812584 0.293898
19 1 0.200839 0.907426 0.290672
288 1 0.329458 0.89965 0.385797
209 1 0.367256 0.883537 0.26251
207 1 0.432585 0.966079 0.368772
216 1 0.502464 0.873031 0.390947
101 1 0.536929 0.991025 0.321565
103 1 0.491478 0.900208 0.270783
451 1 0.631149 0.870265 0.306042
99 1 0.787843 0.859153 0.210626
113 1 0.682483 0.934381 0.202606
393 1 0.757873 0.864997 0.349785
274 1 0.727238 0.96582 0.264598
313 1 0.61198 0.953785 0.385048
261 1 0.96655 0.806929 0.262485
283 1 0.853278 0.967924 0.342353
13 1 0.843412 0.896074 0.248748
138 1 0.953061 0.842927 0.369616
15 1 0.937069 0.976721 0.22466
205 1 0.199397 0.0778874 0.497011
134 1 0.0807 0.143393 0.520729
139 1 0.023701 0.00794927 0.484646
220 1 0.109835 0.021106 0.577384
200 1 0.335962 0.0953425 0.513274
102 1 0.341172 0.00275209 0.595875
206 1 0.589589 0.0984611 0.430681
380 1 0.483312 0.11481 0.482413
400 1 0.493296 0.00985104 0.438489
312 1 0.493254 0.0449243 0.56423
33 1 0.707217 0.0201621 0.510828
236 1 0.789326 0.150132 0.423847
413 1 0.665689 0.145369 0.550411
203 1 0.789961 0.0691111 0.541915
135 1 0.989617 0.143636 0.410334
204 1 0.914274 0.0421808 0.41086
140 1 0.864942 0.102141 0.556033
162 1 0.936458 0.177987 0.473361
201 1 0.962243 0.176134 0.596846
382 1 0.983012 0.0187387 0.55837
228 1 0.0712335 0.282797 0.556852
208 1 0.178415 0.220937 0.481633
358 1 0.183526 0.336225 0.509851
242 1 0.0465904 0.317877 0.439299
238 1 0.0510097 0.253935 0.419047
132 1 0.350226 0.332614 0.472105
328 1 0.316932 0.249855 0.571116
339 1 0.292775 0.374533 0.578995
229 1 0.410419 0.264584 0.479012
302 1 0.476612 0.203001 0.55874
230 1 0.552705 0.31684 0.443699
316 1 0.763512 0.255774 0.53958
414 1 0.606754 0.227823 0.484308
255 1 0.600448 0.327805 0.577274
235 1 0.761566 0.384701 0.46762
157 1 0.6808 0.273093 0.431308
353 1 0.837228 0.263882 0.410698
160 1 0.925606 0.332767 0.481951
42 1 0.85691 0.267421 0.530677
246 1 0.0801942 0.574895 0.420388
268 1 0.130105 0.444787 0.421112
352 1 0.194385 0.4892 0.519911
248 1 0.107532 0.548753 0.565515
58 1 0.0527782 0.406869 0.593541
107 1 0.243938 0.434609 0.43972
252 1 0.385383 0.488242 0.566512
388 1 0.327417 0.522291 0.480572
341 1 0.210346 0.584404 0.455465
257 1 0.479386 0.423048 0.483892
196 1 0.472473 0.554774 0.424073
292 1 0.525168 0.490907 0.578089
279 1 0.647491 0.426027 0.472165
476 1 0.631823 0.583435 0.480798
455 1 0.769581 0.571009 0.45767
295 1 0.671678 0.466559 0.56936
154 1 0.974974 0.466748 0.493238
314 1 0.853668 0.427815 0.555233
253 1 0.901578 0.534314 0.429673
163 1 0.965755 0.586905 0.52082
442 1 0.837766 0.499641 0.575788
289 1 0.150687 0.674647 0.439511
194 1 0.121947 0.789177 0.423478
492 1 0.0396166 0.707902 0.50137
376 1 0.118285 0.658448 0.566147
271 1 0.344398 0.666986 0.504292
310 1 0.25801 0.708274 0.54116
272 1 0.462382 0.649764 0.577296
114 1 0.426534 0.774173 0.4682
293 1 0.507595 0.676916 0.45181
458 1 0.514024 0.764803 0.564623
370 1 0.543526 0.610978 0.547491
53 1 0.778848 0.704625 0.423907
175 1 0.72408 0.685764 0.513768
284 1 0.695678 0.785119 0.561523
278 1 0.631153 0.741326 0.41952
354 1 0.815603 0.627538 0.558418
178 1 0.888457 0.646972 0.427833
224 1 0.982493 0.780114 0.427145
377 1 0.814351 0.798799 0.442573
462 1 0.885577 0.770408 0.568302
387 1 0.93506 0.686666 0.599378
119 1 0.131013 0.990745 0.404787
482 1 0.0832094 0.857039 0.560674
305 1 0.0558698 0.911409 0.466942
286 1 0.174202 0.888592 0.411977
298 1 0.161888 0.806758 0.556108
141 1 0.202541 0.940798 0.537718
346 1 0.308808 0.952503 0.459598
386 1 0.230394 0.808952 0.443266
118 1 0.337771 0.824291 0.508859
176 1 0.551631 0.802099 0.418909
234 1 0.420988 0.93647 0.515385
270 1 0.572208 0.860864 0.530381
394 1 0.582822 0.995447 0.517646
217 1 0.793857 0.971695 0.407803
111 1 0.680605 0.861794 0.455544
374 1 0.779311 0.907359 0.518035
116 1 0.62352 0.859348 0.586488
332 1 0.84422 0.958323 0.53471
468 1 0.976055 0.833448 0.573091
317 1 0.934061 0.898197 0.493543
95 1 0.821886 0.851023 0.597772
347 1 0.172225 0.0674889 0.628352
488 1 0.0943629 0.00491561 0.730772
402 1 0.00330705 0.0767709 0.663477
445 1 0.129758 0.143721 0.725435
424 1 0.0324951 0.0849419 0.797886
418 1 0.247904 0.0215981 0.717065
426 1 0.314653 0.0929946 0.67788
25 1 0.285897 0.180906 0.718558
351 1 0.22726 0.0841232 0.795884
225 1 0.402932 0.0955469 0.634374
485 1 0.4302 0.0414936 0.749897
415 1 0.496225 0.15731 0.678316
490 1 0.568505 0.187025 0.771353
337 1 0.607274 0.0988082 0.606295
431 1 0.782937 0.159485 0.719075
384 1 0.610067 0.0979601 0.760269
301 1 0.798436 0.166014 0.633162
494 1 0.731068 0.0353099 0.6497
420 1 0.720606 0.128063 0.770777
215 1 0.858108 0.0136155 0.677545
443 1 0.937226 0.116793 0.714505
98 1 0.805761 0.035225 0.787373
359 1 0.111236 0.251226 0.640414
345 1 0.172064 0.36414 0.641704
219 1 0.0198095 0.218962 0.741688
327 1 0.18032 0.245972 0.778145
2 1 0.076377 0.325577 0.732542
308 1 0.22675 0.216047 0.600699
447 1 0.267865 0.334454 0.750185
231 1 0.329398 0.331374 0.680681
256 1 0.436517 0.353564 0.610412
330 1 0.421342 0.244904 0.702801
333 1 0.538446 0.321091 0.798579
369 1 0.546272 0.239492 0.658526
373 1 0.472128 0.370966 0.694584
417 1 0.670277 0.231969 0.648506
8 1 0.697484 0.273389 0.790854
357 1 0.61925 0.344347 0.669937
258 1 0.689814 0.388955 0.759404
60 1 0.758238 0.291155 0.646536
360 1 0.718258 0.382646 0.614394
331 1 0.811831 0.305498 0.683484
438 1 0.924444 0.278739 0.673855
459 1 0.957368 0.361475 0.613494
453 1 0.892389 0.372628 0.769949
338 1 0.0521964 0.599328 0.629225
368 1 0.0277941 0.488444 0.743969
343 1 0.0304165 0.424347 0.711715
363 1 0.172815 0.414577 0.781669
49 1 0.225869 0.507611 0.741016
367 1 0.265419 0.448065 0.645502
226 1 0.37814 0.475959 0.670553
290 1 0.586954 0.460299 0.679489
356 1 0.561009 0.427159 0.791806
470 1 0.473725 0.534729 0.751115
291 1 0.49405 0.567765 0.665526
26 1 0.417649 0.422272 0.766282
457 1 0.69092 0.540338 0.722109
430 1 0.783586 0.460606 0.796954
294 1 0.730325 0.57771 0.641394
24 1 0.958052 0.494793 0.608518
259 1 0.853599 0.440121 0.684326
483 1 0.909721 0.556208 0.699422
322 1 0.159574 0.640062 0.735917
385 1 0.00664261 0.604233 0.77563
267 1 0.0842713 0.704705 0.713051
299 1 0.0166405 0.787957 0.691852
348 1 0.23351 0.600258 0.604908
172 1 0.339577 0.611183 0.657105
477 1 0.341688 0.611693 0.727146
406 1 0.256211 0.73176 0.666844
307 1 0.234226 0.730948 0.791204
392 1 0.37878 0.781205 0.604547
76 1 0.482384 0.708519 0.750997
371 1 0.584619 0.605481 0.722702
489 1 0.402911 0.744803 0.659385
383 1 0.405064 0.711085 0.774068
276 1 0.559559 0.737291 0.653071
391 1 0.7178 0.669411 0.774186
280 1 0.65591 0.67965 0.607031
375 1 0.786922 0.746054 0.679054
361 1 0.902223 0.681929 0.720128
449 1 0.841149 0.647875 0.738361
500 1 0.142683 0.900544 0.678723
464 1 0.119955 0.834736 0.677281
452 1 0.0181744 0.912842 0.713437
218 1 0.249861 0.901122 0.614856
401 1 0.282318 0.837192 0.716064
309 1 0.392375 0.927816 0.68785
334 1 0.590997 0.988465 0.738623
296 1 0.423006 0.835551 0.739555
212 1 0.489528 0.937301 0.643789
303 1 0.525495 0.902087 0.763949