ITEM: TIMESTEP
0
ITEM: NUMBER OF ATOMS
500
ITEM: BOX BOUNDS pp pp pp
0.0000000000000000e+00 1.5874010519681994e+01
0.0000000000000000e+00 1.5874010519681994e+01
0.0000000000000000e+00 1.5874010519681994e+01
ITEM: ATOMS id type xs ys zs
4 1 0.103331 0.096118 0.176133
118 1 0.104675 0.0771584 0.0506511
106 1 0.210606 0.103543 0.154122
10 1 0.370383 0.0192869 0.000396422
27 1 0.335328 0.1484 0.0656074
129 1 0.330764 0.0358803 0.157195
149 1 0.333677 0.171257 0.195161
428 1 0.230376 0.143769 0.0445823
9 1 0.24309 0.0179283 0.0559953
33 1 0.478264 0.0209883 0.0768783
7 1 0.449559 0.13216 0.151085
36 1 0.581964 0.154227 0.178501
90 1 0.556243 0.0197833 0.184483
15 1 0.690671 0.0337236 0.167078
416 1 0.616997 0.0934713 0.068445
39 1 0.722769 0.176654 0.11082
413 1 0.737935 0.0891975 0.0163751
117 1 0.784607 0.0127931 0.102824
23 1 0.998435 0.149668 0.11946
415 1 0.94082 0.0375434 0.0857898
104 1 0.867323 0.15439 0.103909
28 1 0.124136 0.214715 0.0967454
48 1 0.09459 0.350431 0.0213969
121 1 0.0244428 0.299742 0.128482
47 1 0.155835 0.332607 0.160497
447 1 0.181141 0.299251 0.0315033
26 1 0.292477 0.274268 0.131216
49 1 0.391191 0.380325 0.0680406
432 1 0.278362 0.399869 0.0402957
29 1 0.422337 0.253423 0.0924985
435 1 0.539883 0.211053 0.0558777
153 1 0.499134 0.327375 0.163079
50 1 0.545831 0.367553 0.0691183
133 1 0.62288 0.270013 0.175154
53 1 0.715518 0.392026 0.132363
54 1 0.771424 0.306713 0.043199
140 1 0.775848 0.277604 0.176413
35 1 0.630659 0.276925 0.0680596
43 1 0.897645 0.33507 0.0279772
40 1 0.901176 0.264826 0.139391
59 1 0.84415 0.37939 0.157852
38 1 0.0827629 0.454282 0.146329
68 1 0.18388 0.452288 0.055416
44 1 0.00538022 0.585399 0.0809313
22 1 0.0315913 0.482689 0.00908665
185 1 0.152048 0.573796 0.089788
52 1 0.280262 0.508557 0.128291
51 1 0.343451 0.407086 0.163543
67 1 0.372462 0.540743 0.0571897
56 1 0.481299 0.443646 0.19084
71 1 0.50985 0.568502 0.132519
69 1 0.437005 0.472733 0.0446087
73 1 0.533795 0.553781 0.00385969
160 1 0.606847 0.421764 0.177935
171 1 0.613322 0.516609 0.0872269
475 1 0.751684 0.539194 0.159128
460 1 0.739124 0.569954 0.0417523
60 1 0.800669 0.446147 0.0497
154 1 0.976598 0.410275 0.0937981
177 1 0.886754 0.536247 0.0506255
144 1 0.973803 0.531088 0.183379
187 1 0.115851 0.698691 0.126231
87 1 0.379586 0.653665 0.121052
182 1 0.257792 0.752334 0.128195
65 1 0.262658 0.636415 0.0448875
467 1 0.390616 0.788397 0.101787
168 1 0.245897 0.632368 0.185963
85 1 0.302764 0.740861 0.000351989
489 1 0.485751 0.670605 0.028832
170 1 0.487016 0.702398 0.170599
72 1 0.537388 0.771229 0.082164
176 1 0.625773 0.619815 0.168259
95 1 0.62765 0.663944 0.0555723
97 1 0.787208 0.674088 0.0074704
194 1 0.666304 0.791143 0.0949785
195 1 0.729759 0.692493 0.137945
180 1 0.872876 0.639751 0.138856
96 1 0.829642 0.767238 0.132659
80 1 0.908178 0.713299 0.0579226
141 1 0.984397 0.697135 0.197834
88 1 0.155104 0.813071 0.167361
199 1 0.0313786 0.801366 0.082992
3 1 0.13229 0.953772 0.0983978
84 1 0.0901482 0.83265 0.0315222
198 1 0.00205863 0.92154 0.118522
109 1 0.325577 0.925219 0.0707809
5 1 0.22948 0.857662 0.0476708
105 1 0.200446 0.971286 0.197878
186 1 0.28544 0.870468 0.188898
189 1 0.591773 0.86136 0.193008
92 1 0.423049 0.91028 0.163698
91 1 0.521889 0.898105 0.0933907
14 1 0.642527 0.958891 0.0923411
94 1 0.713001 0.878925 0.024923
200 1 0.737332 0.891491 0.168424
17 1 0.863796 0.890254 0.11023
100 1 0.937399 0.826757 0.0160117
197 1 0.905109 0.991166 0.19646
108 1 0.041711 0.0749353 0.353164
143 1 0.119424 0.137739 0.304836
282 1 0.0495921 0.0162213 0.213105
132 1 0.257803 0.0784481 0.27536
192 1 0.391905 0.1157 0.29171
226 1 0.256372 0.187079 0.323757
12 1 0.497061 0.0825338 0.322647
32 1 0.502458 0.184069 0.248986
289 1 0.427388 0.0162561 0.218827
116 1 0.62476 0.149971 0.357722
16 1 0.651696 0.0597973 0.286445
214 1 0.76096 0.100554 0.354355
113 1 0.695616 0.19641 0.254281
137 1 0.799234 0.117617 0.218871
125 1 0.933397 0.110493 0.257473
103 1 0.871369 0.032772 0.331142
145 1 0.173536 0.215337 0.221291
122 1 0.0920881 0.302351 0.268825
8 1 0.0183117 0.225059 0.217223
241 1 0.0314595 0.348019 0.363046
147 1 0.193175 0.329796 0.349894
146 1 0.360877 0.22178 0.339433
148 1 0.277799 0.318548 0.257916
130 1 0.398582 0.385997 0.289184
126 1 0.419948 0.259604 0.220768
31 1 0.540213 0.31744 0.292289
251 1 0.447797 0.326391 0.38946
230 1 0.511511 0.21961 0.365999
253 1 0.545833 0.388787 0.37238
55 1 0.681603 0.344829 0.277642
220 1 0.642009 0.28058 0.364049
120 1 0.792005 0.216281 0.340264
135 1 0.80665 0.342549 0.293402
157 1 0.966443 0.370503 0.22045
222 1 0.981325 0.203373 0.359102
138 1 0.881446 0.214762 0.243651
139 1 0.925986 0.335021 0.31153
142 1 0.0978205 0.452716 0.282394
265 1 0.173109 0.490568 0.354779
165 1 0.135551 0.555658 0.221778
163 1 0.0384316 0.567472 0.35627
63 1 0.215623 0.421911 0.212081
152 1 0.282011 0.432939 0.328898
250 1 0.386071 0.543562 0.211214
268 1 0.26805 0.544341 0.278642
151 1 0.385622 0.592993 0.361848
155 1 0.564434 0.476815 0.294172
156 1 0.516515 0.581081 0.25203
274 1 0.433927 0.479396 0.338237
134 1 0.684499 0.431874 0.369979
76 1 0.745357 0.4501 0.263059
254 1 0.665763 0.528994 0.270338
175 1 0.754254 0.560386 0.37456
179 1 0.861351 0.493364 0.201728
159 1 0.850512 0.465265 0.350555
261 1 0.968604 0.479781 0.300182
258 1 0.898398 0.596896 0.384964
162 1 0.075806 0.622425 0.227384
361 1 0.170458 0.627668 0.339705
288 1 0.104835 0.736099 0.252815
365 1 0.150159 0.747338 0.361679
172 1 0.375372 0.76954 0.218925
166 1 0.367265 0.664508 0.256726
169 1 0.388074 0.756294 0.360345
266 1 0.249011 0.735845 0.274757
366 1 0.283846 0.669605 0.397344
273 1 0.496549 0.677542 0.313374
70 1 0.612558 0.729763 0.206873
278 1 0.776882 0.60126 0.259793
173 1 0.646446 0.666571 0.294894
295 1 0.782455 0.672927 0.36946
196 1 0.729257 0.77189 0.228887
262 1 0.987325 0.702479 0.338775
178 1 0.853035 0.718374 0.249927
161 1 0.918658 0.602324 0.270905
294 1 0.8673 0.760819 0.364169
283 1 0.14257 0.996458 0.311287
188 1 0.0764435 0.88243 0.224803
184 1 0.0632815 0.870014 0.376024
286 1 0.192849 0.872722 0.287853
107 1 0.309854 0.967109 0.272235
385 1 0.277506 0.817577 0.343664
209 1 0.38564 0.883534 0.298508
382 1 0.274281 0.962234 0.39166
205 1 0.400252 0.999022 0.359468
111 1 0.521114 0.938189 0.301623
191 1 0.49264 0.8251 0.244152
291 1 0.504251 0.814566 0.357418
393 1 0.594378 0.874596 0.397017
115 1 0.794196 0.997056 0.240093
193 1 0.62719 0.804928 0.317
190 1 0.651924 0.92936 0.282725
217 1 0.725095 0.949332 0.360047
300 1 0.731729 0.807614 0.382134
99 1 0.921909 0.830652 0.200059
297 1 0.985449 0.825066 0.290527
201 1 0.978303 0.956057 0.313378
119 1 0.828485 0.873244 0.262216
298 1 0.885058 0.905087 0.373781
225 1 0.195527 0.0893194 0.405296
202 1 0.0505471 0.116054 0.454214
303 1 0.139985 0.0459837 0.567536
287 1 0.166846 0.163876 0.516126
127 1 0.336118 0.104933 0.412903
285 1 0.241705 0.0683683 0.512127
131 1 0.330799 0.139907 0.55526
231 1 0.464585 0.0805224 0.455906
136 1 0.57696 0.15795 0.480581
213 1 0.57734 0.0197889 0.411961
292 1 0.474155 0.0658967 0.570801
212 1 0.586611 0.123959 0.592413
216 1 0.676372 0.0676954 0.474286
219 1 0.799378 0.144284 0.498249
102 1 0.889516 0.126293 0.400287
114 1 0.811213 0.0122015 0.445616
302 1 0.988398 0.0484004 0.556241
221 1 0.938395 0.171688 0.519931
317 1 0.878006 0.0449196 0.551189
128 1 0.113071 0.224699 0.40266
124 1 0.00777227 0.273579 0.481989
223 1 0.0539856 0.20847 0.571107
245 1 0.104901 0.364762 0.456798
341 1 0.0276508 0.373753 0.557006
242 1 0.168696 0.31165 0.542967
246 1 0.312537 0.326435 0.400308
229 1 0.229485 0.227996 0.442163
206 1 0.362921 0.345358 0.53438
249 1 0.323857 0.279729 0.526989
208 1 0.229043 0.227655 0.589854
267 1 0.241738 0.397701 0.461162
110 1 0.408107 0.203935 0.456921
236 1 0.464797 0.21549 0.563204
330 1 0.54999 0.297091 0.475319
349 1 0.494179 0.389597 0.569928
334 1 0.591727 0.255475 0.588469
234 1 0.775545 0.375252 0.410853
333 1 0.693102 0.265076 0.559078
235 1 0.70868 0.228567 0.45869
233 1 0.63359 0.373246 0.473992
357 1 0.778546 0.366202 0.533005
240 1 0.641388 0.394159 0.594034
239 1 0.819687 0.227499 0.591199
237 1 0.864276 0.271041 0.437923
338 1 0.901843 0.331884 0.564244
243 1 0.163528 0.461127 0.567639
244 1 0.102615 0.495814 0.462588
343 1 0.026179 0.511278 0.598477
263 1 0.00426162 0.445987 0.416615
150 1 0.306681 0.512344 0.41844
269 1 0.205083 0.56705 0.464588
351 1 0.29288 0.480389 0.550198
353 1 0.416565 0.429518 0.451433
252 1 0.507331 0.532278 0.411928
255 1 0.577719 0.479077 0.50357
371 1 0.424616 0.524842 0.51569
257 1 0.719679 0.500504 0.469479
277 1 0.621488 0.568945 0.400082
260 1 0.635634 0.530542 0.599257
238 1 0.913134 0.40511 0.458714
259 1 0.855121 0.494514 0.485007
358 1 0.968924 0.556743 0.495082
183 1 0.0063934 0.757009 0.420601
363 1 0.106941 0.604517 0.566946
164 1 0.0661938 0.645581 0.440604
346 1 0.183301 0.703117 0.492737
347 1 0.310075 0.60253 0.526453
167 1 0.293282 0.764187 0.482473
350 1 0.404662 0.668059 0.466157
256 1 0.533439 0.608212 0.534946
271 1 0.527489 0.685976 0.426906
272 1 0.552603 0.707355 0.579299
270 1 0.465977 0.768934 0.488243
293 1 0.6588 0.692734 0.424794
296 1 0.771027 0.750125 0.501324
375 1 0.691107 0.635908 0.514569
276 1 0.62295 0.791656 0.482704
275 1 0.800419 0.609128 0.510353
378 1 0.988682 0.661892 0.560539
279 1 0.897362 0.696823 0.493732
364 1 0.829341 0.718847 0.597222
342 1 0.0974985 0.803982 0.501747
203 1 0.118191 0.983767 0.429338
384 1 0.197448 0.869548 0.434765
485 1 0.141846 0.933464 0.555017
284 1 0.00804507 0.909156 0.49713
368 1 0.204216 0.816894 0.598084
389 1 0.369484 0.994264 0.503921
490 1 0.270302 0.950325 0.543561
383 1 0.363995 0.870491 0.557247
112 1 0.358284 0.868834 0.445102
290 1 0.594514 0.993708 0.550826
11 1 0.472654 0.921037 0.464472
210 1 0.536253 0.860273 0.531677
313 1 0.752039 0.990046 0.56795
215 1 0.672232 0.924601 0.48457
398 1 0.728231 0.856665 0.588913
218 1 0.790728 0.904758 0.47372
123 1 0.947416 0.992973 0.439807
281 1 0.891695 0.817915 0.476312
264 1 0.968269 0.82123 0.589706
299 1 0.883495 0.94199 0.578422
305 1 0.0603766 0.105802 0.661396
386 1 0.13622 0.00586241 0.689298
308 1 0.153371 0.155166 0.677585
405 1 0.22656 0.0525017 0.789565
207 1 0.265648 0.0783635 0.646224
486 1 0.351943 0.0289345 0.772618
307 1 0.413248 0.119574 0.677379
329 1 0.521623 0.180717 0.692466
211 1 0.530505 0.0216349 0.690986
309 1 0.593266 0.108632 0.76414
314 1 0.694208 0.135897 0.606855
320 1 0.736751 0.140458 0.758884
316 1 0.672818 0.0264392 0.692065
315 1 0.795201 0.0892264 0.637459
204 1 0.921384 0.147562 0.673838
420 1 0.853705 0.0944176 0.757541
418 1 0.943933 0.0197834 0.699044
421 1 0.994868 0.14704 0.775274
325 1 0.102451 0.308301 0.643071
323 1 0.0640058 0.250238 0.734897
322 1 0.191137 0.319488 0.75521
228 1 0.268723 0.210917 0.719924
430 1 0.341205 0.334591 0.694099
247 1 0.252361 0.374376 0.632639
232 1 0.367494 0.237069 0.634107
227 1 0.417231 0.216819 0.769724
326 1 0.475283 0.312017 0.683396
332 1 0.572274 0.309761 0.703845
310 1 0.662063 0.228392 0.714017
438 1 0.715463 0.349901 0.670906
434 1 0.767387 0.305594 0.789118
335 1 0.810861 0.224634 0.717954
224 1 0.966576 0.264813 0.641301
321 1 0.969013 0.391667 0.694311
337 1 0.914109 0.256906 0.759782
340 1 0.823641 0.361451 0.671549
444 1 0.0714057 0.41578 0.793031
441 1 0.111506 0.421978 0.681475
442 1 0.106221 0.546986 0.730242
463 1 0.196297 0.581531 0.787625
248 1 0.213014 0.55551 0.621218
328 1 0.263738 0.470634 0.723632
348 1 0.337569 0.57586 0.6788
356 1 0.39755 0.44197 0.651091
450 1 0.406626 0.477808 0.779075
355 1 0.549539 0.436646 0.699182
473 1 0.501794 0.515188 0.625167
476 1 0.454093 0.593392 0.755767
477 1 0.57122 0.562755 0.753446
360 1 0.752294 0.473094 0.608355
354 1 0.672852 0.463593 0.729984
380 1 0.725008 0.57525 0.764565
359 1 0.902078 0.460255 0.604175
344 1 0.898766 0.584009 0.612753
324 1 0.986362 0.523391 0.718661
457 1 0.843814 0.497844 0.705235
362 1 0.0925726 0.730912 0.607036
464 1 0.137831 0.691104 0.75336
481 1 0.0417598 0.642317 0.681877
345 1 0.197709 0.681821 0.616406
82 1 0.232398 0.779192 0.718184
367 1 0.326042 0.709315 0.605732
465 1 0.26768 0.65433 0.735837
411 1 0.388209 0.707558 0.744383
352 1 0.435908 0.617572 0.609068
470 1 0.50998 0.699344 0.720894
392 1 0.434931 0.771701 0.608449
377 1 0.758879 0.602803 0.642817
373 1 0.614467 0.619394 0.660408
394 1 0.680089 0.744938 0.611535
395 1 0.745909 0.720598 0.729612
374 1 0.615944 0.747856 0.742606
461 1 0.857781 0.638188 0.718787
397 1 0.850929 0.782856 0.777918
399 1 0.932798 0.722435 0.697518
478 1 0.987103 0.625823 0.799922
78 1 0.995738 0.766462 0.791348
462 1 0.0363316 0.803836 0.701657
388 1 0.127947 0.880285 0.693949
498 1 0.0354702 0.93293 0.623464
482 1 0.0305011 0.935405 0.762545
62 1 0.334754 0.811115 0.676519
387 1 0.258711 0.938999 0.677382
370 1 0.38111 0.982125 0.639273
488 1 0.29166 0.881869 0.782105
376 1 0.467391 0.923981 0.627648
466 1 0.434263 0.851371 0.735129
390 1 0.471005 0.975363 0.761847
369 1 0.558225 0.82838 0.65952
391 1 0.595361 0.889944 0.767381
396 1 0.635207 0.918943 0.629928
319 1 0.711942 0.850929 0.72467
301 1 0.785137 0.967511 0.704075
499 1 0.699418 0.982635 0.796724
280 1 0.827677 0.834804 0.636603
381 1 0.922954 0.886037 0.715382
402 1 0.0843964 0.0491828 0.801455
425 1 0.149572 0.185761 0.809121
408 1 0.076492 0.083224 0.92017
45 1 0.121068 0.189264 0.957929
403 1 0.187365 0.0537895 0.910914
306 1 0.316511 0.150801 0.80828
406 1 0.318159 0.100925 0.930557
426 1 0.239369 0.191727 0.906047
412 1 0.433359 0.136032 0.989929
429 1 0.438634 0.0182531 0.887059
409 1 0.52455 0.0345631 0.97543
410 1 0.475997 0.100834 0.808541
431 1 0.564413 0.145158 0.922011
427 1 0.426581 0.195846 0.897262
311 1 0.579642 0.01567 0.842699
20 1 0.670354 0.193372 0.980769
414 1 0.665116 0.0836594 0.896539
419 1 0.785414 0.106929 0.881242
496 1 0.862101 0.0591197 0.962641
318 1 0.941056 0.0212707 0.861387
21 1 0.977457 0.123803 0.977912
304 1 0.912673 0.164953 0.865052
423 1 0.0076935 0.215476 0.895487
445 1 0.124413 0.302926 0.879624
440 1 0.00858377 0.364855 0.917954
6 1 0.321661 0.260901 0.982343
327 1 0.317463 0.288847 0.841453
42 1 0.235402 0.353092 0.912606
312 1 0.532574 0.222268 0.823757
331 1 0.450283 0.349762 0.807603
30 1 0.458643 0.294973 0.961994
436 1 0.563823 0.294659 0.916315
336 1 0.63344 0.359534 0.816207
433 1 0.658399 0.228592 0.83701
37 1 0.681358 0.336717 0.954634
437 1 0.767529 0.243596 0.897258
57 1 0.792388 0.375781 0.920389
422 1 0.999936 0.312246 0.808809
439 1 0.833354 0.201623 0.997394
24 1 0.976052 0.259021 0.999185
424 1 0.880006 0.300754 0.897558
443 1 0.188571 0.431913 0.817449
41 1 0.13666 0.448911 0.937273
64 1 0.080415 0.550714 0.864565
46 1 0.29223 0.527501 0.967606
446 1 0.348286 0.593787 0.837984
448 1 0.300566 0.442863 0.85287
61 1 0.220696 0.542096 0.927396
449 1 0.40015 0.40641 0.929832
454 1 0.528679 0.444804 0.831702
453 1 0.423776 0.522127 0.908877
452 1 0.542581 0.422979 0.944632
456 1 0.542239 0.56654 0.88225
34 1 0.660207 0.450214 0.992619
339 1 0.756782 0.433125 0.807565
174 1 0.655665 0.586405 0.951216
451 1 0.663108 0.500252 0.854735
455 1 0.776694 0.513802 0.929493
379 1 0.893577 0.405199 0.803116
479 1 0.976048 0.482769 0.851326
58 1 0.913615 0.469714 0.945917
459 1 0.852778 0.5307 0.821101
98 1 0.0338445 0.698347 0.987635
158 1 0.12497 0.606576 0.988762
483 1 0.107057 0.692797 0.870904
83 1 0.162677 0.746793 0.989778
81 1 0.240411 0.767643 0.848123
471 1 0.37589 0.651314 0.971578
372 1 0.250878 0.659076 0.881051
468 1 0.342921 0.743249 0.875647
487 1 0.458864 0.781802 0.825648
469 1 0.463015 0.692471 0.885928
93 1 0.584315 0.700655 0.935153
472 1 0.585277 0.797206 0.849626
491 1 0.463068 0.792784 0.97785
493 1 0.62353 0.645515 0.815871
474 1 0.741193 0.650976 0.869677
74 1 0.707032 0.739146 0.964828
494 1 0.715961 0.775546 0.838506
77 1 0.998761 0.600651 0.936589
75 1 0.873336 0.616125 0.942694
458 1 0.964542 0.737153 0.913613
480 1 0.846579 0.656838 0.825184
497 1 0.831775 0.772339 0.931972
404 1 0.164317 0.939801 0.841458
181 1 0.0745578 0.825129 0.921697
2 1 0.0435427 0.92779 0.898768
25 1 0.139606 0.955897 0.981705
484 1 0.107042 0.827045 0.806502
66 1 0.336906 0.849805 0.952969
86 1 0.289079 0.964207 0.908661
407 1 0.373881 0.898304 0.851063
1 1 0.207347 0.848737 0.920756
89 1 0.430761 0.900102 0.99112
492 1 0.520683 0.910785 0.886753
495 1 0.60323 0.837755 0.981516
13 1 0.633495 0.976712 0.977327
417 1 0.666775 0.89567 0.887506
500 1 0.764531 0.981336 0.940221
400 1 0.785599 0.891973 0.838092
101 1 0.978209 0.961041 0.989929
18 1 0.864964 0.920554 0.941508
401 1 0.834975 0.989778 0.821806
79 1 0.801534 0.830528 0.948775
19 1 0.937299 0.87058 0.855639
ITEM: TIMESTEP
1000
ITEM: NUMBER OF ATOMS
500
ITEM: BOX BOUNDS pp pp pp
-7.3072691544773249e-04 1.5874741246597406e+01
-7.3072691544773249e-04 1.5874741246597406e+01
-7.3072691544773249e-04 1.5874741246597406e+01
ITEM: ATOMS id type xs ys zs
118 1 0.0879321 0.0632092 0.0547754
106 1 0.156841 0.13536 0.0879638
121 1 0.0607092 0.185684 0.184137
27 1 0.312893 0.0713334 0.0468879
129 1 0.356087 0.0259921 0.164003
149 1 0.318158 0.143232 0.154879
428 1 0.217861 0.180265 0.0363334
29 1 0.337712 0.190929 0.00036251
105 1 0.217579 0.0384642 0.150699
132 1 0.203634 0.179625 0.189715
33 1 0.480683 0.0513642 0.041801
7 1 0.452374 0.131877 0.175367
90 1 0.535552 0.0329711 0.19324
412 1 0.476868 0.185169 0.0778411
36 1 0.706679 0.1966 0.117268
15 1 0.657983 0.0575161 0.0320506
39 1 0.766239 0.139414 0.143372
413 1 0.762857 0.128839 0.00466568
32 1 0.626584 0.151052 0.113259
16 1 0.651723 0.0201691 0.173428
23 1 0.955868 0.104042 0.106577
415 1 0.871186 0.0729097 0.0343047
104 1 0.854553 0.0277718 0.159821
38 1 0.104849 0.388151 0.13819
145 1 0.136422 0.275463 0.0823024
24 1 0.00951889 0.267977 0.0654694
26 1 0.285706 0.277016 0.151845
42 1 0.274851 0.315003 0.0410156
49 1 0.417471 0.333533 0.0530562
435 1 0.570925 0.285181 0.0744759
153 1 0.425897 0.28787 0.137941
53 1 0.662637 0.383432 0.0171075
54 1 0.684706 0.272283 0.0259876
140 1 0.749055 0.29782 0.131355
43 1 0.822078 0.331095 0.0509926
40 1 0.975757 0.294369 0.15556
304 1 0.889291 0.208792 0.0353613
439 1 0.889864 0.204123 0.139456
47 1 0.174059 0.406159 0.139737
68 1 0.167294 0.459237 0.0293895
22 1 0.0499743 0.485198 0.0385117
185 1 0.187625 0.540867 0.133031
144 1 0.0598729 0.541501 0.143697
158 1 0.14445 0.566327 0.0441714
432 1 0.309356 0.413439 0.0921467
65 1 0.290589 0.544154 0.0779323
274 1 0.384795 0.462379 0.185811
67 1 0.424572 0.459793 0.0507984
71 1 0.419737 0.597657 0.070181
69 1 0.517047 0.42114 0.160723
73 1 0.520769 0.579285 0.0253339
176 1 0.555796 0.569826 0.158503
250 1 0.400813 0.597955 0.180091
171 1 0.609821 0.452255 0.079527
475 1 0.713983 0.428654 0.183226
460 1 0.6688 0.552564 0.10069
60 1 0.745874 0.479938 0.014759
455 1 0.78645 0.591798 0.00524131
59 1 0.841718 0.405534 0.129821
154 1 0.963791 0.426469 0.14718
177 1 0.823994 0.5091 0.189767
180 1 0.806499 0.56144 0.145972
58 1 0.909563 0.506752 0.0250886
75 1 0.936229 0.586318 0.0950171
44 1 0.0525974 0.634972 0.0883831
187 1 0.0409565 0.730008 0.180587
168 1 0.16638 0.694011 0.1434
98 1 0.0578848 0.723721 0.0446702
87 1 0.308984 0.681894 0.119023
83 1 0.202955 0.669453 0.0401953
489 1 0.433882 0.695687 0.00476692
95 1 0.542434 0.697311 0.0746278
273 1 0.504123 0.698009 0.191556
495 1 0.564779 0.752492 0.0270629
195 1 0.649796 0.693023 0.128828
96 1 0.732111 0.773113 0.128877
174 1 0.631883 0.603906 0.0178168
97 1 0.812336 0.669565 0.078258
141 1 0.947424 0.675816 0.156871
199 1 0.950672 0.74493 0.030801
178 1 0.877683 0.760367 0.141096
3 1 0.135334 0.909365 0.15587
84 1 0.19649 0.805898 0.0794639
282 1 0.0151028 0.963637 0.11719
25 1 0.15284 0.94136 0.0212348
182 1 0.324223 0.810101 0.121657
109 1 0.387203 0.952946 0.0319109
5 1 0.290598 0.949089 0.0509668
186 1 0.27864 0.911346 0.175323
467 1 0.400016 0.803382 0.0319951
72 1 0.467321 0.817931 0.126002
92 1 0.45191 0.934463 0.134461
91 1 0.589896 0.902228 0.129341
409 1 0.575253 0.971463 0.0105355
194 1 0.641038 0.861224 0.0542743
14 1 0.768293 0.967679 0.102415
17 1 0.765053 0.868656 0.0893205
115 1 0.769143 0.984436 0.182047
198 1 0.972036 0.834905 0.149639
100 1 0.905591 0.916433 0.057575
99 1 0.874357 0.931161 0.180755
79 1 0.809637 0.803892 0.00429564
4 1 0.0710213 0.0432606 0.217272
143 1 0.0921697 0.165858 0.299122
225 1 0.109627 0.0648122 0.362837
192 1 0.289723 0.108214 0.303939
146 1 0.335306 0.192999 0.383475
107 1 0.308813 0.00623766 0.281731
127 1 0.221555 0.0852154 0.38334
12 1 0.588663 0.126838 0.257484
289 1 0.449946 0.02256 0.256133
230 1 0.451081 0.134876 0.31514
213 1 0.560641 0.0326925 0.344471
116 1 0.633211 0.176442 0.375993
214 1 0.665895 0.0824201 0.334341
137 1 0.743558 0.102365 0.241938
108 1 0.99391 0.0064419 0.348871
125 1 0.936314 0.0562846 0.238419
8 1 0.957907 0.166061 0.270818
120 1 0.839418 0.144449 0.330436
102 1 0.931933 0.100896 0.360563
226 1 0.193417 0.220862 0.372858
122 1 0.159975 0.269704 0.218823
241 1 0.0726077 0.283377 0.341864
157 1 0.0534152 0.35621 0.248154
142 1 0.152342 0.369538 0.34526
148 1 0.268939 0.273708 0.264044
130 1 0.396208 0.319264 0.376052
63 1 0.278415 0.394796 0.219503
246 1 0.241178 0.304471 0.397498
133 1 0.585694 0.233431 0.219863
51 1 0.437903 0.369665 0.263525
56 1 0.530724 0.293171 0.218429
126 1 0.404461 0.220311 0.263108
31 1 0.540868 0.232447 0.35817
251 1 0.429136 0.263376 0.395539
155 1 0.543507 0.354475 0.334317
35 1 0.62745 0.383398 0.205778
113 1 0.725648 0.21683 0.311619
220 1 0.66771 0.348386 0.318902
55 1 0.802077 0.334531 0.245205
135 1 0.905854 0.321336 0.25134
222 1 0.929007 0.256884 0.38199
138 1 0.823883 0.202965 0.263546
139 1 0.936917 0.372283 0.378732
234 1 0.803224 0.326863 0.358247
165 1 0.178241 0.501603 0.266052
163 1 0.0947074 0.547506 0.360821
261 1 0.0385939 0.452913 0.278454
162 1 0.0312737 0.591943 0.235765
52 1 0.28023 0.546711 0.216242
152 1 0.255936 0.432818 0.359504
268 1 0.295282 0.544542 0.328447
353 1 0.346064 0.446283 0.371135
253 1 0.55176 0.416674 0.36472
151 1 0.438901 0.595079 0.311085
156 1 0.478806 0.504878 0.234992
252 1 0.431412 0.453238 0.351516
277 1 0.593335 0.53866 0.355709
160 1 0.609543 0.491423 0.261443
76 1 0.733489 0.474187 0.298622
254 1 0.693143 0.588602 0.241305
179 1 0.915694 0.464392 0.274603
159 1 0.818751 0.477931 0.316407
161 1 0.942335 0.597543 0.269869
263 1 0.947949 0.496544 0.387129
361 1 0.149487 0.609866 0.237347
288 1 0.0842401 0.717483 0.3048
366 1 0.191957 0.692926 0.331073
262 1 0.00241792 0.60489 0.394374
297 1 0.00213664 0.750149 0.308602
172 1 0.354536 0.772176 0.222302
166 1 0.294897 0.677442 0.241005
385 1 0.293924 0.765638 0.354753
170 1 0.449821 0.694192 0.244177
173 1 0.589225 0.64629 0.279982
191 1 0.48196 0.783028 0.31906
175 1 0.713357 0.604529 0.377032
70 1 0.616309 0.756125 0.224034
196 1 0.748072 0.727571 0.232678
293 1 0.746956 0.708497 0.348707
278 1 0.828002 0.625797 0.320081
295 1 0.881973 0.722752 0.286809
88 1 0.0433875 0.896962 0.260604
365 1 0.134269 0.83316 0.363418
266 1 0.15874 0.80879 0.221041
283 1 0.159291 0.992813 0.258615
184 1 0.0845669 0.941303 0.35079
382 1 0.171502 0.941516 0.399878
286 1 0.254023 0.887477 0.309621
209 1 0.388711 0.885566 0.250341
205 1 0.323731 0.950619 0.395706
112 1 0.381814 0.873782 0.357887
189 1 0.51104 0.870506 0.242522
111 1 0.555291 0.90794 0.31748
231 1 0.420557 0.986911 0.363473
200 1 0.648512 0.899606 0.200456
193 1 0.617455 0.805618 0.352598
190 1 0.67256 0.946257 0.320616
300 1 0.783343 0.853318 0.392806
119 1 0.769869 0.870568 0.245791
197 1 0.812247 0.989873 0.321471
294 1 0.979178 0.849109 0.397287
188 1 0.932136 0.920605 0.262919
201 1 0.899126 0.854197 0.303492
202 1 0.0150041 0.1457 0.44602
287 1 0.150747 0.106253 0.474288
302 1 0.0654361 0.117453 0.580177
123 1 0.0134208 0.0254435 0.467774
308 1 0.174819 0.165114 0.567826
285 1 0.263001 0.0284628 0.496066
131 1 0.317031 0.156314 0.58426
229 1 0.273007 0.189069 0.479697
110 1 0.381995 0.089772 0.42992
136 1 0.518557 0.131915 0.449353
292 1 0.466421 0.094353 0.583132
212 1 0.598154 0.169788 0.578685
236 1 0.404857 0.195849 0.526377
290 1 0.551523 0.0558749 0.491313
103 1 0.777905 0.0560982 0.43485
216 1 0.675095 0.120245 0.477258
313 1 0.794275 0.100045 0.569694
219 1 0.915601 0.1093 0.488962
147 1 0.127782 0.314194 0.460104
128 1 0.0539024 0.207886 0.421896
124 1 0.00330185 0.34611 0.478957
223 1 0.014708 0.238505 0.598899
242 1 0.212785 0.300031 0.555714
206 1 0.353979 0.352128 0.484756
249 1 0.252808 0.375888 0.571841
349 1 0.477888 0.374373 0.480254
334 1 0.525105 0.271138 0.541482
326 1 0.410162 0.315912 0.594007
330 1 0.632939 0.279358 0.446247
333 1 0.768422 0.354276 0.497569
235 1 0.73047 0.211895 0.425541
233 1 0.605601 0.394803 0.507048
314 1 0.758504 0.224303 0.560652
310 1 0.673588 0.321798 0.547868
221 1 0.916595 0.236923 0.527532
237 1 0.812691 0.213437 0.461651
238 1 0.886559 0.346742 0.515161
265 1 0.191244 0.537264 0.413328
245 1 0.0339711 0.436887 0.427519
267 1 0.122075 0.42648 0.43779
243 1 0.0879502 0.422906 0.56927
244 1 0.0396478 0.563977 0.505435
269 1 0.197968 0.59553 0.503816
248 1 0.186494 0.471262 0.579509
150 1 0.369045 0.572523 0.404629
351 1 0.27388 0.482788 0.491071
255 1 0.500614 0.436336 0.524762
371 1 0.400122 0.484214 0.516028
167 1 0.412339 0.549533 0.521168
256 1 0.513715 0.529882 0.426018
473 1 0.529018 0.576997 0.547614
134 1 0.664945 0.459991 0.424983
257 1 0.70361 0.540193 0.494142
260 1 0.648313 0.478997 0.593495
275 1 0.771165 0.573711 0.501542
341 1 0.992657 0.491693 0.551229
259 1 0.832403 0.472967 0.439311
359 1 0.874923 0.465242 0.579174
183 1 0.097211 0.74562 0.522172
363 1 0.19798 0.675127 0.545024
164 1 0.11862 0.674511 0.419598
378 1 0.0329681 0.643283 0.594984
279 1 0.0117075 0.719843 0.476317
169 1 0.395666 0.69567 0.404415
346 1 0.289866 0.675077 0.433437
342 1 0.215322 0.79327 0.559623
368 1 0.332614 0.679881 0.548717
350 1 0.466375 0.700363 0.524383
271 1 0.543616 0.670924 0.400536
272 1 0.576827 0.733622 0.586262
375 1 0.626679 0.651941 0.505851
276 1 0.641082 0.759201 0.417046
394 1 0.759724 0.727369 0.48208
258 1 0.871748 0.615387 0.441387
358 1 0.92726 0.621896 0.525662
296 1 0.870276 0.744506 0.418394
364 1 0.833716 0.710859 0.563682
264 1 0.973008 0.795462 0.59835
203 1 0.125469 0.985589 0.516947
384 1 0.198245 0.816732 0.419079
485 1 0.103854 0.881375 0.483518
498 1 0.0149397 0.997568 0.587788
270 1 0.308989 0.822512 0.459735
389 1 0.399112 0.997898 0.517371
490 1 0.264615 0.921583 0.530775
383 1 0.39487 0.864217 0.501797
291 1 0.49655 0.813687 0.458317
11 1 0.496914 0.925839 0.458233
376 1 0.487994 0.931756 0.567887
393 1 0.62796 0.905762 0.437737
217 1 0.694173 0.985334 0.463599
210 1 0.629606 0.821974 0.536381
215 1 0.698262 0.99332 0.56919
218 1 0.772532 0.838209 0.521603
298 1 0.891583 0.95145 0.427801
114 1 0.850618 0.951778 0.553098
284 1 0.998952 0.856546 0.475911
281 1 0.896667 0.841466 0.509095
305 1 0.0831459 0.00941015 0.799786
204 1 0.00489943 0.166077 0.680475
425 1 0.070481 0.0583259 0.687317
426 1 0.126499 0.125954 0.761824
405 1 0.238547 0.0587652 0.750957
207 1 0.22157 0.110395 0.66616
370 1 0.328303 0.00854964 0.628125
306 1 0.358676 0.126606 0.786493
329 1 0.501472 0.190746 0.644367
211 1 0.561964 0.0717 0.698775
232 1 0.401303 0.0868734 0.66243
410 1 0.509201 0.0697739 0.735668
309 1 0.652106 0.153272 0.763493
320 1 0.723743 0.0672903 0.716509
316 1 0.666812 0.0951029 0.609339
335 1 0.785131 0.189444 0.752002
317 1 0.921062 0.117308 0.629376
315 1 0.817634 0.141793 0.636489
420 1 0.843815 0.0837455 0.771341
418 1 0.94605 0.0268877 0.711041
325 1 0.0375716 0.35518 0.63413
323 1 0.072412 0.238887 0.771615
322 1 0.128579 0.274786 0.651399
247 1 0.188897 0.376338 0.719547
208 1 0.258732 0.26469 0.682321
228 1 0.235279 0.227206 0.771015
430 1 0.328274 0.362046 0.727761
227 1 0.379555 0.201566 0.671594
450 1 0.465345 0.392919 0.74793
355 1 0.490886 0.301266 0.709546
312 1 0.570911 0.255571 0.741723
357 1 0.759268 0.384149 0.64006
240 1 0.642904 0.359173 0.653134
332 1 0.702981 0.221918 0.665504
438 1 0.763496 0.348809 0.746903
336 1 0.656545 0.293203 0.78802
239 1 0.866023 0.262802 0.65248
338 1 0.922565 0.360289 0.620221
224 1 0.925438 0.232205 0.75963
340 1 0.876854 0.368677 0.710595
422 1 0.99844 0.36083 0.752774
343 1 0.13893 0.552698 0.637001
321 1 0.00907305 0.483353 0.654563
444 1 0.0404637 0.496919 0.777294
441 1 0.0939057 0.474594 0.724518
442 1 0.171598 0.552242 0.751337
347 1 0.362242 0.576743 0.616122
328 1 0.302123 0.521813 0.711129
348 1 0.36495 0.449907 0.640488
356 1 0.53058 0.442121 0.654715
476 1 0.458441 0.515047 0.750816
477 1 0.542578 0.571415 0.685634
360 1 0.767804 0.497646 0.646693
354 1 0.703539 0.519014 0.731058
377 1 0.651828 0.588871 0.626675
454 1 0.60386 0.431359 0.795374
344 1 0.833492 0.576408 0.628547
324 1 0.894602 0.503324 0.755384
457 1 0.830996 0.481226 0.758537
481 1 0.971539 0.590824 0.65622
362 1 0.113728 0.716017 0.653931
464 1 0.0720593 0.663214 0.76847
345 1 0.241044 0.640053 0.647
82 1 0.261677 0.74744 0.721694
367 1 0.385445 0.73598 0.616617
465 1 0.338837 0.660373 0.752202
81 1 0.206685 0.643854 0.778412
352 1 0.443936 0.638065 0.710635
470 1 0.477935 0.700065 0.77524
373 1 0.553326 0.677863 0.679999
380 1 0.752516 0.618669 0.741958
374 1 0.769724 0.748831 0.785373
369 1 0.715421 0.704971 0.639896
472 1 0.631512 0.794636 0.753257
493 1 0.606712 0.674497 0.760563
395 1 0.869563 0.719113 0.641606
461 1 0.893484 0.660639 0.778034
399 1 0.982538 0.715916 0.699901
303 1 0.184693 0.999427 0.61993
78 1 0.0636904 0.820552 0.771152
462 1 0.0813132 0.826407 0.639177
482 1 0.0709001 0.932555 0.683194
386 1 0.231482 0.912533 0.637465
307 1 0.359065 0.99433 0.735399
411 1 0.367121 0.801122 0.762414
388 1 0.272114 0.801254 0.668455
62 1 0.376638 0.859678 0.61138
387 1 0.324331 0.894061 0.788777
404 1 0.203759 0.92404 0.761332
392 1 0.481379 0.81272 0.682503
466 1 0.579945 0.822308 0.654479
390 1 0.442739 0.935608 0.704927
391 1 0.549619 0.927804 0.755507
396 1 0.59274 0.953634 0.611888
398 1 0.719283 0.829372 0.643306
319 1 0.668231 0.938394 0.725584
301 1 0.789997 0.997042 0.664285