ITEM: TIMESTEP
0
ITEM: NUMBER OF ATOMS
500
ITEM: BOX BOUNDS pp pp pp
0.0000000000000000e+00 1.5874010519681994e+01
0.0000000000000000e+00 1.5874010519681994e+01
0.0000000000000000e+00 1.5874010519681994e+01
ITEM: ATOMS id type xs ys zs
3 1 0.12346 0.0326249 0.101577
4 1 0.00116237 0.104077 0.10569
2 1 0.108591 0.134497 0.0134493
1 1 0.0280382 0.00223591 0.0102504
8 1 0.206859 0.115068 0.106942
7 1 0.286338 0.00918921 0.0938917
12 1 0.392397 0.115623 0.125969
6 1 0.296854 0.121307 0.00272563
109 1 0.396211 0.00220938 0.168473
11 1 0.505006 0.0286497 0.089009
10 1 0.467909 0.129654 0.02241
31 1 0.501179 0.188889 0.12818
16 1 0.612416 0.109742 0.0931319
35 1 0.713186 0.186474 0.0727122
15 1 0.690611 0.00591855 0.0963368
113 1 0.619321 0.00631378 0.198972
20 1 0.804541 0.11155 0.100167
118 1 0.897726 0.0692713 0.162696
17 1 0.80261 0.0090494 0.00715573
121 1 0.977511 0.181606 0.178421
23 1 0.092821 0.208551 0.11724
122 1 0.0972981 0.340311 0.197542
22 1 0.0897907 0.306273 0.0152707
27 1 0.304097 0.214869 0.133094
28 1 0.204957 0.304853 0.114801
47 1 0.32137 0.388357 0.116259
29 1 0.391034 0.231975 0.0219565
25 1 0.208275 0.22388 0.00876757
26 1 0.286247 0.316561 0.00819742
32 1 0.421337 0.299948 0.157783
30 1 0.500681 0.301061 0.0226837
33 1 0.593344 0.208683 0.00876535
130 1 0.528855 0.300651 0.193516
49 1 0.402823 0.385984 0.00225532
36 1 0.60454 0.271823 0.111972
34 1 0.692753 0.311622 0.0132046
24 1 0.997136 0.320852 0.124021
40 1 0.80052 0.307108 0.0916616
39 1 0.887275 0.229908 0.0887091
137 1 0.806532 0.206893 0.196304
21 1 0.990394 0.221934 0.0166255
38 1 0.906153 0.337441 0.00428575
43 1 0.119062 0.400794 0.0937312
63 1 0.108964 0.565143 0.076137
161 1 0.00582293 0.587342 0.198373
142 1 0.0902987 0.488093 0.183619
48 1 0.221479 0.508844 0.0934161
145 1 0.227558 0.405806 0.195808
146 1 0.29749 0.519838 0.177221
51 1 0.48093 0.405276 0.118625
52 1 0.400974 0.480808 0.0869083
53 1 0.590757 0.400566 0.0158693
56 1 0.587739 0.493325 0.12594
71 1 0.459856 0.56517 0.115211
73 1 0.565962 0.592084 0.0208518
55 1 0.707654 0.403747 0.125936
57 1 0.771164 0.41399 0.00436628
54 1 0.680083 0.495923 0.0160675
44 1 0.989247 0.49979 0.0860868
60 1 0.803326 0.510633 0.108047
59 1 0.903976 0.417654 0.12905
58 1 0.868262 0.478035 0.00539216
41 1 0.997236 0.413718 0.027184
83 1 0.125324 0.784989 0.0834748
64 1 0.0244718 0.669282 0.0903266
162 1 0.110105 0.671573 0.181639
68 1 0.196057 0.686813 0.0783153
181 1 0.0136379 0.781721 0.19635
185 1 0.206111 0.788258 0.190103
67 1 0.314132 0.603403 0.0797693
166 1 0.278045 0.707312 0.192312
72 1 0.38876 0.705075 0.0952381
76 1 0.557585 0.684143 0.10718
193 1 0.583794 0.794998 0.178838
170 1 0.469722 0.713952 0.192182
75 1 0.678374 0.600316 0.106522
197 1 0.790671 0.769159 0.187276
174 1 0.679446 0.68429 0.195199
74 1 0.683159 0.67934 0.0203907
80 1 0.788502 0.679035 0.0947049
95 1 0.681819 0.777289 0.110291
79 1 0.914714 0.601087 0.0819301
99 1 0.921359 0.766401 0.10856
97 1 0.810545 0.781235 0.0266183
182 1 0.109486 0.893094 0.192925
88 1 0.181663 0.918242 0.0744327
84 1 0.0188996 0.868282 0.0864932
101 1 0.0124439 0.985419 0.178891
87 1 0.275909 0.811228 0.0737317
186 1 0.282876 0.906658 0.167523
189 1 0.372937 0.811975 0.189849
92 1 0.403847 0.913707 0.0759817
91 1 0.492122 0.811939 0.076805
190 1 0.501811 0.904249 0.181946
13 1 0.601514 0.978772 0.00469734
117 1 0.784844 0.969094 0.171156
96 1 0.600063 0.90165 0.107674
100 1 0.773658 0.873753 0.0917414
19 1 0.904879 0.973484 0.0784064
198 1 0.914579 0.888391 0.168473
98 1 0.890248 0.887197 0.0179144
102 1 0.100677 0.120595 0.250235
108 1 0.189906 0.095265 0.289787
205 1 0.19162 0.00578067 0.379303
103 1 0.0546624 0.00240454 0.289555
202 1 0.0911004 0.0889582 0.377841
221 1 0.0102475 0.195794 0.385711
106 1 0.312674 0.113555 0.219322
107 1 0.303111 0.00539576 0.284737
206 1 0.304815 0.0870781 0.370817
110 1 0.516002 0.0962275 0.204222
112 1 0.42332 0.087069 0.289275
229 1 0.407969 0.190317 0.393843
210 1 0.50805 0.0921429 0.394422
233 1 0.6 0.187922 0.393532
114 1 0.706945 0.0835829 0.210624
116 1 0.605414 0.0777088 0.30865
135 1 0.719859 0.191069 0.331305
133 1 0.631212 0.176543 0.220651
214 1 0.714888 0.0725471 0.38586
120 1 0.823749 0.104525 0.2758
104 1 0.965759 0.0972077 0.28992
123 1 0.0873438 0.249924 0.272578
225 1 0.161067 0.204362 0.381936
222 1 0.0876617 0.326036 0.399541
125 1 0.20408 0.202521 0.202341
128 1 0.203942 0.314941 0.301933
129 1 0.394328 0.201364 0.243867
127 1 0.287525 0.20772 0.332459
126 1 0.302269 0.307171 0.222043
147 1 0.297658 0.390887 0.305378
132 1 0.395276 0.312151 0.332531
131 1 0.505894 0.205297 0.3052
151 1 0.509551 0.38957 0.319166
136 1 0.609294 0.28578 0.303957
134 1 0.693321 0.288676 0.207229
140 1 0.785875 0.292883 0.307842
157 1 0.79086 0.382633 0.21354
124 1 0.98663 0.307981 0.306597
138 1 0.89404 0.30227 0.205564
139 1 0.917859 0.223061 0.30277
165 1 0.194247 0.599233 0.209341
143 1 0.121716 0.409344 0.296487
141 1 0.000934518 0.415425 0.242838
163 1 0.122149 0.582165 0.31354
149 1 0.385192 0.430026 0.229065
148 1 0.212416 0.491498 0.298693
152 1 0.395586 0.505698 0.314494
150 1 0.489245 0.482173 0.231089
156 1 0.581758 0.507765 0.317292
173 1 0.558149 0.59521 0.210061
250 1 0.488405 0.499411 0.38818
153 1 0.609294 0.411409 0.213635
154 1 0.703161 0.504043 0.20058
155 1 0.698402 0.401653 0.305601
254 1 0.721259 0.502061 0.39931
175 1 0.686497 0.577861 0.301563
158 1 0.908164 0.517979 0.206054
144 1 0.987045 0.512099 0.300032
159 1 0.881079 0.408095 0.310415
160 1 0.811881 0.502086 0.298837
164 1 0.0187277 0.667539 0.313581
281 1 0.0132056 0.785623 0.393244
168 1 0.194489 0.720553 0.286186
183 1 0.100039 0.785152 0.298943
167 1 0.278979 0.616084 0.30907
172 1 0.376955 0.71884 0.28971
269 1 0.38351 0.630784 0.399531
265 1 0.230248 0.608391 0.365121
169 1 0.405893 0.612458 0.201893
171 1 0.48754 0.630856 0.321119
270 1 0.502894 0.756013 0.390528
176 1 0.575432 0.712662 0.286846
180 1 0.781839 0.70736 0.298565
274 1 0.690681 0.687451 0.384717
177 1 0.804808 0.613594 0.206249
178 1 0.920393 0.677483 0.201843
179 1 0.901674 0.614756 0.314188
199 1 0.905373 0.776771 0.302239
277 1 0.80601 0.621619 0.393761
105 1 0.18061 0.994461 0.204591
188 1 0.190298 0.896079 0.295095
282 1 0.0949925 0.886801 0.367848
187 1 0.300183 0.814127 0.294923
192 1 0.3979 0.937247 0.275784
286 1 0.305285 0.905467 0.384246
111 1 0.502892 0.995484 0.289731
191 1 0.484223 0.823691 0.272186
290 1 0.500854 0.912919 0.391545
289 1 0.401008 0.82681 0.386094
194 1 0.702934 0.868456 0.214314
195 1 0.687239 0.800081 0.316198
213 1 0.617725 0.970409 0.385187
115 1 0.729987 0.993424 0.295235
196 1 0.601121 0.891155 0.282592
294 1 0.729837 0.893772 0.381373
119 1 0.889199 0.984546 0.278488
184 1 0.98702 0.901341 0.300236
200 1 0.828924 0.879298 0.263421
298 1 0.910023 0.872368 0.39017
201 1 0.985239 0.995577 0.385142
208 1 0.167261 0.0860129 0.477806
223 1 0.0928175 0.196446 0.496607
204 1 8.80563e-05 0.0632312 0.487328
305 1 0.188332 0.0035399 0.59515
325 1 0.188391 0.188906 0.58813
302 1 0.0769666 0.0876327 0.593657
209 1 0.399542 0.0127889 0.401481
227 1 0.275874 0.159917 0.467208
212 1 0.396803 0.0976604 0.498359
207 1 0.279432 0.00206929 0.483965
306 1 0.28803 0.0949355 0.581217
309 1 0.393505 0.0185822 0.598036
310 1 0.531387 0.0809283 0.585559
231 1 0.5063 0.159117 0.491789
216 1 0.634462 0.0746927 0.495699
314 1 0.704691 0.0973397 0.597204
235 1 0.713659 0.188103 0.476259
333 1 0.607341 0.192622 0.596405
218 1 0.913305 0.0966983 0.406437
237 1 0.835039 0.195895 0.403908
220 1 0.809269 0.0944318 0.510394
239 1 0.910945 0.189287 0.504998
217 1 0.829815 0.00659269 0.401198
318 1 0.927842 0.0621654 0.590379
228 1 0.188105 0.304899 0.508475
224 1 0.00489551 0.301117 0.504741
226 1 0.300572 0.286366 0.412374
247 1 0.28886 0.391394 0.503072
326 1 0.292985 0.267831 0.578712
230 1 0.513163 0.279551 0.417451
232 1 0.403223 0.283647 0.503223
349 1 0.400787 0.388837 0.587133
330 1 0.497176 0.277236 0.591384
253 1 0.616763 0.39398 0.408638
234 1 0.690072 0.299587 0.422919
236 1 0.604419 0.303704 0.512076
334 1 0.710451 0.292741 0.594147
238 1 0.905962 0.307686 0.412043
257 1 0.806473 0.398205 0.405051
240 1 0.801822 0.303419 0.505777
338 1 0.893818 0.320544 0.598625
337 1 0.80259 0.210871 0.571607
321 1 0.975023 0.201922 0.599911
243 1 0.104551 0.401196 0.518598
242 1 0.106562 0.494172 0.425325
245 1 0.194799 0.406942 0.416284
249 1 0.388255 0.408105 0.434011
248 1 0.213002 0.530281 0.485766
246 1 0.307163 0.499589 0.400388
346 1 0.299647 0.517488 0.59502
252 1 0.373653 0.518522 0.501076
345 1 0.218327 0.411573 0.597677
251 1 0.513809 0.400377 0.4891
350 1 0.506523 0.498544 0.575739
271 1 0.491591 0.59015 0.487722
373 1 0.570373 0.598767 0.590987
255 1 0.703669 0.418754 0.520991
256 1 0.605142 0.494448 0.4671
260 1 0.797475 0.510924 0.523122
275 1 0.703081 0.587365 0.511681
261 1 0.997404 0.598012 0.416151
241 1 0.99922 0.421201 0.406928
244 1 0.992389 0.515995 0.528274
258 1 0.881534 0.510465 0.421708
259 1 0.913395 0.410777 0.503286
262 1 0.12139 0.683551 0.406688
263 1 0.100779 0.610221 0.511523
264 1 0.0063205 0.687676 0.523398
283 1 0.100592 0.787181 0.509723
266 1 0.303854 0.729263 0.415941
285 1 0.204583 0.789237 0.402315
267 1 0.288701 0.63843 0.511997
268 1 0.209086 0.721433 0.521905
366 1 0.335796 0.738583 0.588173
273 1 0.591154 0.601547 0.404778
272 1 0.430833 0.728477 0.500015
276 1 0.58439 0.717401 0.49422
369 1 0.408599 0.630444 0.576341
280 1 0.738846 0.683321 0.485765
374 1 0.684356 0.680397 0.585863
278 1 0.930068 0.702713 0.418411
297 1 0.816436 0.779982 0.409185
279 1 0.878808 0.605743 0.501856
299 1 0.911858 0.785191 0.526004
378 1 0.90794 0.654272 0.591193
397 1 0.802618 0.751366 0.589825
203 1 0.0976042 0.971127 0.473848
288 1 0.191713 0.9027 0.49007
284 1 0.0194691 0.887772 0.486116
382 1 0.0512999 0.841995 0.597112
287 1 0.312105 0.83461 0.517589
292 1 0.401527 0.931855 0.500691
211 1 0.516606 0.993827 0.483053
291 1 0.516413 0.839449 0.506097
293 1 0.616516 0.835411 0.432429
296 1 0.626875 0.937337 0.51534
295 1 0.702876 0.81176 0.500371
215 1 0.734125 0.976703 0.493708
219 1 0.909041 0.951408 0.501115
300 1 0.801491 0.873485 0.491859
308 1 0.19379 0.0883505 0.70196
323 1 0.0934872 0.187302 0.679824
421 1 0.00842162 0.190298 0.796291
303 1 0.0529898 0.00352941 0.710972
402 1 0.0899963 0.0991613 0.795839
425 1 0.183348 0.187993 0.778332
327 1 0.282405 0.183506 0.689495
406 1 0.290816 0.112742 0.799466
429 1 0.380758 0.199595 0.792509
307 1 0.283392 0.020068 0.706767
409 1 0.395116 0.0155077 0.799876
329 1 0.4113 0.178863 0.606909
312 1 0.40715 0.0955836 0.70734
331 1 0.496675 0.19066 0.698159
311 1 0.515218 0.00988745 0.720492
316 1 0.616986 0.119764 0.689236
335 1 0.718617 0.194129 0.692363
315 1 0.71969 0.0227385 0.710573
413 1 0.602331 0.0353833 0.782236
304 1 0.994268 0.0884168 0.703492
320 1 0.829907 0.0941089 0.693807
317 1 0.804367 0.00352165 0.601936
417 1 0.814159 0.00688958 0.794291
322 1 0.103665 0.282835 0.61186
422 1 0.109013 0.306689 0.782796
343 1 0.126429 0.395627 0.692284
328 1 0.210965 0.295211 0.688782
426 1 0.296286 0.302245 0.7846
347 1 0.316649 0.372217 0.66777
332 1 0.387676 0.273246 0.68418
445 1 0.218459 0.384449 0.798849
430 1 0.495888 0.287841 0.79871
336 1 0.597596 0.286954 0.692295
351 1 0.488926 0.390818 0.673204
453 1 0.586092 0.388778 0.773638
449 1 0.404839 0.376101 0.762774
434 1 0.693678 0.304538 0.794347
340 1 0.798129 0.292384 0.709309
355 1 0.688719 0.395353 0.702476
341 1 0.998495 0.399497 0.604122
357 1 0.800258 0.395751 0.620594
339 1 0.886676 0.209135 0.687573
324 1 0.987486 0.314369 0.680214
359 1 0.894856 0.398593 0.71095
438 1 0.896442 0.303152 0.799366
361 1 0.0202511 0.583486 0.64449
342 1 0.132583 0.506147 0.605877
442 1 0.125198 0.477888 0.796291
344 1 0.0161553 0.471106 0.719785
363 1 0.1229 0.571295 0.724519
348 1 0.23071 0.466136 0.70181
446 1 0.33821 0.499974 0.770842
465 1 0.243126 0.589612 0.787172
365 1 0.208065 0.594199 0.615796
352 1 0.403644 0.505104 0.665763
356 1 0.586311 0.500335 0.693003
450 1 0.47973 0.480945 0.783706
473 1 0.566306 0.58722 0.788053
353 1 0.602252 0.402533 0.604259
354 1 0.692718 0.500632 0.61581
360 1 0.794858 0.499062 0.715463
375 1 0.669852 0.585797 0.696684
454 1 0.678779 0.509948 0.792337
358 1 0.898744 0.507481 0.620543
458 1 0.905653 0.496608 0.784106
362 1 0.113598 0.70635 0.651811
364 1 0.0143539 0.69208 0.748775
462 1 0.13568 0.68456 0.772564
367 1 0.329677 0.604651 0.684726
368 1 0.245889 0.707556 0.681199
370 1 0.530756 0.730773 0.615667
371 1 0.486421 0.60027 0.703782
469 1 0.404336 0.627221 0.791166
372 1 0.414587 0.718474 0.702418
377 1 0.78084 0.600264 0.629772
376 1 0.612581 0.716718 0.707168
474 1 0.696567 0.665858 0.795749
395 1 0.723806 0.782247 0.678172
379 1 0.909488 0.603324 0.718449
380 1 0.804621 0.682576 0.703379
381 1 0.967163 0.759416 0.638223
399 1 0.892793 0.772009 0.715566
481 1 0.965756 0.779683 0.79776
301 1 0.050967 0.959369 0.603791
383 1 0.0940805 0.820012 0.719907
385 1 0.185629 0.818796 0.613937
388 1 0.163468 0.921135 0.683047
384 1 0.00123564 0.895212 0.694073
485 1 0.198402 0.807484 0.77234
387 1 0.303935 0.843259 0.689382
386 1 0.293511 0.929715 0.607788
389 1 0.424088 0.836269 0.615612
392 1 0.421709 0.930226 0.724762
390 1 0.515797 0.915861 0.61875
391 1 0.507014 0.818482 0.727466
313 1 0.616236 0.995515 0.625043
394 1 0.729735 0.90979 0.614557
393 1 0.614126 0.815248 0.600446
396 1 0.618376 0.895261 0.719406
494 1 0.715835 0.917944 0.799776
319 1 0.919224 0.97814 0.68354
400 1 0.815391 0.892607 0.729708
398 1 0.882427 0.881712 0.608375
5 1 0.184205 0.0114384 0.983267
403 1 0.0764645 0.00516003 0.884059
408 1 0.17995 0.121467 0.892919
404 1 0.0175637 0.121416 0.925407
9 1 0.370259 0.0174799 0.991794
407 1 0.269196 0.0355582 0.886453
412 1 0.382481 0.101984 0.90849
410 1 0.507873 0.113745 0.829694
416 1 0.593421 0.103113 0.923464
411 1 0.509532 0.0256711 0.924188
14 1 0.700308 0.0975921 0.971894
433 1 0.601974 0.199983 0.806522
414 1 0.712892 0.10567 0.812153
437 1 0.79549 0.191942 0.801128
18 1 0.91348 0.105813 0.997971
401 1 0.954712 0.002441 0.820758
420 1 0.814653 0.101585 0.906023
418 1 0.906142 0.121145 0.828035
441 1 0.0156508 0.377015 0.806988
423 1 0.0759484 0.226502 0.896359
428 1 0.189488 0.298241 0.911515
427 1 0.272858 0.213523 0.893397
432 1 0.380634 0.285202 0.89
431 1 0.478424 0.200604 0.910064
451 1 0.481781 0.374745 0.903209
436 1 0.591223 0.287363 0.921345
435 1 0.701604 0.224477 0.903938
37 1 0.800942 0.220707 0.983399
424 1 0.990429 0.315671 0.902858
440 1 0.800162 0.316702 0.905145
439 1 0.914679 0.230502 0.894272
461 1 0.00221851 0.586368 0.814412
42 1 0.108457 0.495932 0.984716
443 1 0.126764 0.402816 0.903657
463 1 0.109209 0.591036 0.869735
447 1 0.309405 0.407457 0.879551
65 1 0.204565 0.599761 0.966386
45 1 0.213621 0.418012 0.996722
46 1 0.31978 0.500687 0.999774
448 1 0.228777 0.507322 0.875713
69 1 0.42523 0.591619 0.97023
50 1 0.521692 0.480809 0.995517
452 1 0.416549 0.488176 0.889935
456 1 0.575791 0.467823 0.871862
471 1 0.511439 0.598195 0.896089
457 1 0.768828 0.404441 0.816307
455 1 0.668049 0.417621 0.895725
77 1 0.788018 0.586037 0.993661
477 1 0.790185 0.576425 0.817246
460 1 0.783113 0.505017 0.905064
475 1 0.659028 0.574627 0.912478
444 1 0.991843 0.484879 0.916215
459 1 0.88893 0.408985 0.888301
479 1 0.897822 0.562737 0.90116
85 1 0.19556 0.792536 0.981579
62 1 0.0896152 0.701241 0.960771
483 1 0.0832724 0.789938 0.87196
468 1 0.196154 0.705856 0.873703
81 1 0.00203702 0.780635 0.99466
66 1 0.302014 0.710017 0.969021
466 1 0.299818 0.706357 0.800454
467 1 0.322914 0.60669 0.893664
70 1 0.493832 0.72801 0.99154
470 1 0.512988 0.72041 0.807913
472 1 0.414319 0.731946 0.893004
476 1 0.614713 0.69339 0.903587
480 1 0.747318 0.67275 0.912471
497 1 0.780353 0.794623 0.822719
493 1 0.641125 0.79701 0.802256
61 1 0.993322 0.602403 0.981357
464 1 0.971721 0.698238 0.89511
78 1 0.888064 0.666413 0.992926
478 1 0.86636 0.688122 0.842968
499 1 0.883893 0.785007 0.920177
82 1 0.0851649 0.883501 0.982986
482 1 0.0811766 0.91453 0.816324
405 1 0.186295 0.984357 0.805301
488 1 0.193098 0.883639 0.898892
86 1 0.2898 0.926457 0.975177
487 1 0.30441 0.813427 0.884532
89 1 0.369137 0.820035 0.983541
486 1 0.292503 0.914602 0.801213
492 1 0.387269 0.937563 0.889819
489 1 0.40255 0.820225 0.800228
90 1 0.490195 0.897392 0.964124
490 1 0.51325 0.940973 0.817428
491 1 0.521855 0.826611 0.876929
415 1 0.707009 0.995492 0.910109
93 1 0.605252 0.817478 0.999342
495 1 0.70596 0.806707 0.914558
496 1 0.614595 0.922232 0.889856
94 1 0.710234 0.89317 0.997421
419 1 0.915951 0.995588 0.935119
500 1 0.808606 0.914835 0.907353
484 1 0.98275 0.891794 0.917205
498 1 0.91143 0.892027 0.814849
ITEM: TIMESTEP
1000
ITEM: NUMBER OF ATOMS
500
ITEM: BOX BOUNDS pp pp pp
-8.4108244011460442e-04 1.5874851602122057e+01
-8.4108244011460442e-04 1.5874851602122057e+01
-8.4108244011460442e-04 1.5874851602122057e+01
ITEM: ATOMS id type xs ys zs
3 1 0.1791 0.0952008 0.102101
4 1 0.0275562 0.137083 0.178203
2 1 0.0418265 0.106537 0.0919058
101 1 0.147847 0.00608085 0.179065
7 1 0.316105 0.0314841 0.108122
12 1 0.314178 0.1574 0.0375973
106 1 0.308703 0.105177 0.197638
9 1 0.370136 0.0286228 0.0159653
11 1 0.478673 0.02042 0.050931
31 1 0.450052 0.151068 0.0804382
16 1 0.563377 0.0865943 0.133568
110 1 0.540712 0.0996675 0.195139
129 1 0.415437 0.134222 0.189608
15 1 0.680058 0.020074 0.12146
114 1 0.701578 0.103364 0.174011
14 1 0.664668 0.108589 0.0161088
37 1 0.763421 0.113323 0.0562954
20 1 0.812596 0.0111593 0.104657
39 1 0.835804 0.146959 0.15537
21 1 0.930916 0.183776 0.0688888
18 1 0.916087 0.0793036 0.0805055
23 1 0.115699 0.214483 0.122686
122 1 0.0503845 0.348743 0.194773
22 1 0.0288928 0.253617 0.0294457
25 1 0.180313 0.250423 0.00661856
43 1 0.0755592 0.343015 0.0546767
45 1 0.181546 0.337116 0.07518
8 1 0.245211 0.203783 0.122073
27 1 0.373672 0.251101 0.160533
28 1 0.233474 0.284388 0.191698
47 1 0.286952 0.379567 0.146721
26 1 0.308244 0.295543 0.0458853
32 1 0.398639 0.326073 0.0389981
29 1 0.459559 0.234671 0.00554397
130 1 0.444518 0.352918 0.175334
36 1 0.520595 0.302055 0.0583847
35 1 0.612293 0.2057 0.0892906
34 1 0.715588 0.240257 0.0158577
40 1 0.779979 0.369872 0.0654374
137 1 0.751419 0.257006 0.142937
55 1 0.617526 0.3048 0.124166
134 1 0.723976 0.344837 0.186982
24 1 0.923214 0.333477 0.0613964
138 1 0.864037 0.294182 0.155894
145 1 0.133808 0.428534 0.16386
44 1 0.054273 0.55389 0.146605
58 1 0.00691704 0.474506 0.046872
42 1 0.101704 0.517849 0.00399976
48 1 0.233494 0.47694 0.129355
52 1 0.366485 0.487607 0.0719886
51 1 0.519805 0.435826 0.0978163
56 1 0.552575 0.576441 0.158654
169 1 0.417868 0.544123 0.142564
50 1 0.513224 0.552608 0.0255669
54 1 0.610868 0.447561 0.0107523
60 1 0.740863 0.540934 0.071301
75 1 0.633819 0.595369 0.0345158
157 1 0.777111 0.446684 0.192272
154 1 0.66492 0.462203 0.147123
59 1 0.85066 0.456782 0.0587374
79 1 0.900777 0.581041 0.0552814
141 1 0.971199 0.41464 0.14863
158 1 0.861977 0.521996 0.180592
63 1 0.145336 0.637464 0.107437
83 1 0.0743791 0.73148 0.0731625
162 1 0.0771457 0.730487 0.175698
61 1 0.0365711 0.607605 0.00692106
464 1 0.0870232 0.744177 0.00681311
68 1 0.223253 0.729427 0.068185
67 1 0.253453 0.601548 0.110141
166 1 0.354501 0.653114 0.166081
87 1 0.36803 0.771134 0.139973
66 1 0.348741 0.670064 0.0156859
71 1 0.588156 0.687474 0.0559457
72 1 0.483821 0.759567 0.0356513
76 1 0.586972 0.777133 0.110511
170 1 0.504864 0.713133 0.168353
69 1 0.41981 0.643288 0.0604424
80 1 0.768388 0.680567 0.0390604
95 1 0.718008 0.761892 0.126134
175 1 0.700307 0.62655 0.159162
64 1 0.978222 0.613355 0.12801
99 1 0.866367 0.737803 0.0954389
177 1 0.802949 0.620065 0.177885
81 1 0.949673 0.717059 0.027145
1 1 0.0631582 0.965132 0.0608577
88 1 0.153695 0.848839 0.104123
84 1 1.77409e-05 0.868694 0.0661982
186 1 0.269292 0.887152 0.145489
92 1 0.360506 0.905182 0.0976167
5 1 0.214455 0.945308 0.0776594
85 1 0.294503 0.810869 0.0334443
109 1 0.438894 0.997151 0.174573
91 1 0.462623 0.86923 0.140039
190 1 0.564946 0.958673 0.14796
13 1 0.589547 0.963003 0.0140468
96 1 0.631496 0.851271 0.0830047
194 1 0.710579 0.925801 0.17371
94 1 0.752307 0.929364 0.0101536
181 1 0.96933 0.830377 0.13401
117 1 0.846889 0.97794 0.190679
100 1 0.822914 0.901607 0.124974
19 1 0.988732 0.992523 0.148016
198 1 0.84363 0.856588 0.174165
98 1 0.892444 0.852691 0.00372895
202 1 0.141516 0.112794 0.337626
104 1 0.0565464 0.0509285 0.247052
201 1 0.0237921 0.0216161 0.367693
102 1 0.206458 0.1203 0.220414
108 1 0.266716 0.0300238 0.330465
225 1 0.200783 0.185274 0.394308
127 1 0.399332 0.198542 0.317429
112 1 0.405443 0.0749897 0.326755
229 1 0.496264 0.139015 0.351043
210 1 0.555553 0.0779459 0.349937
116 1 0.636192 0.123344 0.288266
120 1 0.793026 0.118466 0.332544
115 1 0.746781 0.0402078 0.271252
118 1 0.898863 0.0821422 0.232762
218 1 0.959717 0.123834 0.38255
221 1 0.0165493 0.202939 0.341145
123 1 0.112842 0.233177 0.253294
222 1 0.0862524 0.286058 0.337976
128 1 0.17384 0.365168 0.280176
125 1 0.276765 0.213307 0.281288
126 1 0.356103 0.345807 0.27374
226 1 0.294806 0.347259 0.33764
133 1 0.563563 0.213352 0.208249
132 1 0.462571 0.290403 0.23169
131 1 0.554344 0.230897 0.322225
250 1 0.500816 0.37604 0.334181
153 1 0.580371 0.360469 0.225339
135 1 0.702757 0.234968 0.248342
151 1 0.622203 0.351513 0.375729
136 1 0.676133 0.296231 0.322763
234 1 0.771841 0.338614 0.368941
121 1 0.959943 0.2161 0.227208
140 1 0.823199 0.365999 0.264178
124 1 0.960061 0.340212 0.297355
139 1 0.852817 0.225958 0.257278
238 1 0.896413 0.278769 0.394599
143 1 0.0631685 0.457361 0.319031
163 1 0.0923037 0.505267 0.352306
148 1 0.194359 0.470453 0.278863
146 1 0.286126 0.490989 0.232099
147 1 0.392011 0.456346 0.351844
152 1 0.394696 0.558226 0.249493
246 1 0.310799 0.496049 0.396276
149 1 0.430087 0.444628 0.215357
150 1 0.554876 0.493806 0.272811
171 1 0.45975 0.543007 0.393427
156 1 0.651826 0.596412 0.270666
155 1 0.666573 0.4486 0.301046
160 1 0.776901 0.526548 0.326101
161 1 0.989593 0.568707 0.254706
159 1 0.948664 0.464676 0.253611
257 1 0.83752 0.442217 0.359599
258 1 0.924489 0.518741 0.331346
142 1 0.135384 0.62023 0.241408
185 1 0.19451 0.748423 0.22254
164 1 0.0570428 0.681057 0.270212
168 1 0.157707 0.709746 0.352528
165 1 0.25423 0.647299 0.248493
167 1 0.250446 0.615411 0.365766
187 1 0.322148 0.739266 0.246533
289 1 0.356651 0.769443 0.367702
189 1 0.460673 0.752223 0.229265
173 1 0.519822 0.617764 0.298479
172 1 0.408222 0.668708 0.355088
174 1 0.66138 0.738372 0.239091
176 1 0.608 0.741274 0.298216
180 1 0.785018 0.762772 0.234229
277 1 0.711659 0.663915 0.305714
195 1 0.765039 0.783427 0.359001
144 1 0.973857 0.62864 0.397854
178 1 0.927861 0.687202 0.207709
179 1 0.884167 0.636681 0.282312
278 1 0.861073 0.70417 0.385636
182 1 0.113436 0.850573 0.219099
103 1 0.148962 0.94792 0.314409
183 1 0.0517432 0.81034 0.334215
184 1 0.0253753 0.922215 0.23947
107 1 0.337072 0.863474 0.302142
105 1 0.228393 0.974444 0.213011
188 1 0.212419 0.847946 0.336247
192 1 0.359267 0.90274 0.255139
209 1 0.325438 0.977742 0.36997
193 1 0.545735 0.845774 0.217192
111 1 0.474002 0.970582 0.305648
191 1 0.470825 0.801616 0.333376
293 1 0.598752 0.903957 0.33896
113 1 0.605137 0.984267 0.251276
197 1 0.746627 0.907812 0.289767
196 1 0.646784 0.854353 0.302182
199 1 0.93436 0.810638 0.262908
119 1 0.919388 0.985812 0.306591
200 1 0.835373 0.916899 0.334553
297 1 0.907955 0.815174 0.360259
208 1 0.17771 0.104755 0.474181
223 1 0.0928227 0.181129 0.454318
204 1 0.0570392 0.0573626 0.477739
325 1 0.155956 0.191786 0.585149
318 1 0.00447882 0.125084 0.532182
203 1 0.103134 0.00576444 0.528012
205 1 0.222203 0.00463295 0.446178
206 1 0.329707 0.0792726 0.436184
227 1 0.340192 0.184107 0.432304
306 1 0.279792 0.145052 0.534048
309 1 0.382414 0.00767538 0.538229
212 1 0.463515 0.0478767 0.466184
231 1 0.512278 0.198969 0.465523
329 1 0.427741 0.140514 0.557769
214 1 0.680833 0.101891 0.418397
216 1 0.600882 0.0915959 0.49356
333 1 0.614413 0.190177 0.573442
237 1 0.794626 0.19955 0.421065
215 1 0.75102 0.0180599 0.49745
313 1 0.645686 0.0429958 0.57367
220 1 0.873707 0.124984 0.461052
217 1 0.885364 0.0551376 0.429943
219 1 0.939229 0.00632942 0.538482
317 1 0.87076 0.0324856 0.597754
228 1 0.183444 0.283121 0.445032
224 1 0.0296999 0.312072 0.455953
245 1 0.108414 0.373706 0.411744
345 1 0.139005 0.337575 0.552027
322 1 0.0359666 0.301653 0.562946
326 1 0.228054 0.276637 0.558615
232 1 0.352197 0.297936 0.488559
349 1 0.386339 0.366975 0.558013
230 1 0.520701 0.3228 0.486842
330 1 0.462376 0.242356 0.569604
249 1 0.446476 0.281297 0.400405
353 1 0.577944 0.376368 0.569514
233 1 0.662693 0.218213 0.412113
235 1 0.792579 0.204362 0.54412
236 1 0.67298 0.283646 0.519061
255 1 0.730982 0.370822 0.44477
239 1 0.951036 0.226135 0.50049
240 1 0.829993 0.326399 0.507511
265 1 0.127445 0.590707 0.409468
243 1 0.0797726 0.440979 0.496429
242 1 0.00628762 0.508028 0.46685
248 1 0.179098 0.490857 0.483714
263 1 0.0769784 0.570604 0.536318
247 1 0.266145 0.403034 0.465971
346 1 0.257918 0.427367 0.585224
252 1 0.336553 0.479997 0.464518
267 1 0.264984 0.569088 0.545886
369 1 0.397489 0.477792 0.583968
251 1 0.456957 0.427748 0.462603
256 1 0.589353 0.488866 0.559411
273 1 0.523328 0.524086 0.438039
254 1 0.70879 0.548303 0.461047
274 1 0.621893 0.572126 0.424817
253 1 0.632255 0.417759 0.459409
354 1 0.701945 0.458512 0.56561
260 1 0.823626 0.474919 0.475143
241 1 0.940267 0.403205 0.429105
244 1 0.910212 0.558562 0.507523
259 1 0.914184 0.410301 0.570373
279 1 0.821138 0.597649 0.411147
377 1 0.817371 0.58112 0.554117
262 1 0.0641732 0.680673 0.474103
283 1 0.123685 0.794277 0.470743
268 1 0.19845 0.668009 0.527957
269 1 0.347093 0.617326 0.462318
266 1 0.258808 0.712856 0.440329
366 1 0.384201 0.646071 0.558072
287 1 0.296071 0.766577 0.506212
270 1 0.518713 0.680811 0.413623
271 1 0.477565 0.602381 0.526558
272 1 0.402457 0.767963 0.468395
276 1 0.594174 0.704593 0.497965
291 1 0.550775 0.794136 0.43188
370 1 0.509891 0.749972 0.591272
275 1 0.717351 0.690826 0.460904
280 1 0.765849 0.728149 0.490053
374 1 0.702814 0.767193 0.592889
375 1 0.702378 0.628162 0.571874
281 1 0.989581 0.746181 0.43163
261 1 0.951639 0.64876 0.535228
264 1 0.930884 0.783434 0.549266
378 1 0.838426 0.686126 0.575608
282 1 0.084099 0.914912 0.401992
284 1 0.0134749 0.882954 0.519895
286 1 0.363428 0.905824 0.502374
207 1 0.234196 0.973509 0.559638
285 1 0.224641 0.875946 0.452149
385 1 0.20988 0.804185 0.597544
290 1 0.43681 0.918752 0.404207
292 1 0.494328 0.854779 0.531241
211 1 0.545681 0.972909 0.474738
213 1 0.643998 0.990143 0.401663
294 1 0.750985 0.995127 0.428498
397 1 0.758821 0.890654 0.55856
296 1 0.648645 0.91298 0.50823
295 1 0.686165 0.848909 0.448561
298 1 0.937223 0.910466 0.425424
299 1 0.855564 0.817388 0.490775
300 1 0.807876 0.887005 0.45234
302 1 0.0914056 0.0658918 0.662315
321 1 0.0716976 0.186306 0.626049
308 1 0.195624 0.130542 0.743323
402 1 0.0438192 0.0537279 0.769276
301 1 0.0351814 0.00410622 0.63238
305 1 0.207962 0.0552967 0.625952
327 1 0.314026 0.187482 0.661744
429 1 0.369363 0.163718 0.775498
307 1 0.344938 0.0708079 0.637942
486 1 0.279615 0.0555232 0.799674
310 1 0.524033 0.094248 0.610415
409 1 0.442337 0.0227647 0.788501
311 1 0.462395 0.0426318 0.691692
410 1 0.494271 0.13506 0.776625
314 1 0.753178 0.107338 0.600944
316 1 0.643337 0.0823385 0.697933
335 1 0.762193 0.192184 0.700421
320 1 0.797434 0.040065 0.718521
414 1 0.642558 0.174051 0.769366
337 1 0.913855 0.140482 0.617396
418 1 0.93232 0.111691 0.7763
343 1 0.0511798 0.39222 0.718592
328 1 0.153946 0.269133 0.70718
347 1 0.183185 0.376275 0.693013
324 1 0.0117721 0.271927 0.745075
426 1 0.263762 0.23361 0.749965
332 1 0.345457 0.314249 0.62623
430 1 0.348149 0.314486 0.76209
312 1 0.455407 0.201754 0.679763
331 1 0.582489 0.225221 0.674048
351 1 0.483558 0.331019 0.677183
433 1 0.487721 0.26456 0.782918
334 1 0.694445 0.307153 0.611863
336 1 0.62773 0.300193 0.703095
357 1 0.784094 0.373047 0.622291
457 1 0.789094 0.365972 0.741929
338 1 0.963711 0.307704 0.613683
304 1 0.998836 0.210096 0.724177
340 1 0.853424 0.245182 0.638098
339 1 0.868978 0.274044 0.754517
441 1 0.952801 0.361685 0.798525
342 1 0.118786 0.487424 0.64011
363 1 0.0265411 0.578307 0.743891
348 1 0.178795 0.510096 0.741296
352 1 0.332482 0.460647 0.704269
367 1 0.301324 0.55695 0.647545
350 1 0.467391 0.477352 0.613054
453 1 0.56111 0.470589 0.701028
473 1 0.561527 0.597234 0.781716
469 1 0.423221 0.555585 0.782818
355 1 0.665636 0.417527 0.709646
356 1 0.662675 0.544346 0.682284
360 1 0.770081 0.521756 0.694198
341 1 0.98766 0.493155 0.610501
359 1 0.908525 0.419432 0.685495
344 1 0.920088 0.517965 0.739015
358 1 0.866719 0.518675 0.647514
382 1 0.0575112 0.778883 0.6112
361 1 0.0100015 0.607811 0.629909
465 1 0.19852 0.63114 0.75494
365 1 0.17592 0.622211 0.632457
362 1 0.112329 0.731463 0.606622
364 1 0.0815466 0.709642 0.727064
368 1 0.280396 0.700822 0.641475
466 1 0.333081 0.659756 0.762155
373 1 0.563749 0.607425 0.635831
371 1 0.428508 0.607383 0.663673
372 1 0.414558 0.751308 0.697541
376 1 0.560971 0.734914 0.676143
470 1 0.532037 0.668835 0.767383
474 1 0.684936 0.630855 0.740247
380 1 0.746444 0.707129 0.686026
493 1 0.624666 0.77068 0.732933
379 1 0.854371 0.660465 0.711531
381 1 0.942544 0.697014 0.67128
497 1 0.824639 0.78716 0.76129
288 1 0.142797 0.88877 0.606742
303 1 0.175672 0.950203 0.732454
383 1 0.0461303 0.841166 0.718794
401 1 0.0343134 0.948612 0.765487
462 1 0.209445 0.812316 0.709614
388 1 0.312625 0.972508 0.694223
387 1 0.315261 0.800711 0.707133
386 1 0.313275 0.88773 0.604909
392 1 0.393097 0.908993 0.721511
389 1 0.436805 0.881914 0.627298
390 1 0.52153 0.970869 0.612084
391 1 0.508048 0.840233 0.718273
396 1 0.550135 0.96977 0.738566
395 1 0.70617 0.862365 0.724427
394 1 0.7461 0.980876 0.634421
393 1 0.6025 0.866284 0.612489
494 1 0.704167 0.941046 0.721641
399 1 0.82624 0.804971 0.629185
384 1 0.939315 0.813435 0.762901
319 1 0.93487 0.998813 0.714552
400 1 0.834922 0.913626 0.724694
398 1 0.894329 0.895925 0.612131