ITEM: TIMESTEP
0
ITEM: NUMBER OF ATOMS
500
ITEM: BOX BOUNDS pp pp pp
0.0000000000000000e+00 1.5874010519681994e+01
0.0000000000000000e+00 1.5874010519681994e+01
0.0000000000000000e+00 1.5874010519681994e+01
ITEM: ATOMS id type xs ys zs
8 1 0.192841 0.0998032 0.109521
23 1 0.0829973 0.192618 0.111111
3 1 0.0683578 0.0106031 0.100234
105 1 0.194664 0.00192213 0.195174
5 1 0.187824 0.00394566 0.0291011
106 1 0.303487 0.111685 0.190021
7 1 0.307038 0.000800193 0.120149
25 1 0.216777 0.191479 0.0132446
29 1 0.38409 0.178215 0.0117639
6 1 0.305827 0.081104 0.0313948
12 1 0.437718 0.0953727 0.124124
110 1 0.526115 0.0684282 0.193508
16 1 0.607375 0.100848 0.071591
114 1 0.694926 0.0771734 0.181922
20 1 0.780361 0.103797 0.090552
35 1 0.687039 0.197619 0.0991192
4 1 0.995013 0.112128 0.0909478
118 1 0.893255 0.0800051 0.166385
43 1 0.108698 0.390197 0.107867
22 1 0.118122 0.278324 0.0153184
125 1 0.204764 0.200911 0.199784
27 1 0.319601 0.205379 0.115811
28 1 0.206848 0.284049 0.0988053
47 1 0.313388 0.390331 0.083794
126 1 0.306894 0.29635 0.194905
31 1 0.498794 0.200065 0.0763383
32 1 0.418346 0.294336 0.092894
36 1 0.592941 0.289857 0.0985069
149 1 0.415301 0.395895 0.189551
40 1 0.79635 0.319207 0.0920922
134 1 0.693068 0.291609 0.174258
34 1 0.693087 0.293533 0.00353474
24 1 0.996404 0.295386 0.0931951
39 1 0.877281 0.207675 0.103508
138 1 0.89654 0.297873 0.191842
59 1 0.902125 0.39646 0.0842748
137 1 0.800119 0.203498 0.196423
142 1 0.0897176 0.504237 0.19224
48 1 0.195805 0.490675 0.128336
65 1 0.199823 0.598386 0.0206434
42 1 0.102719 0.506348 0.0206994
46 1 0.288831 0.482181 0.00782462
67 1 0.308964 0.587286 0.100782
146 1 0.318084 0.481462 0.194573
45 1 0.200025 0.408321 0.0214997
69 1 0.403138 0.585125 0.00435015
52 1 0.421806 0.497779 0.0780315
51 1 0.514495 0.400423 0.0938697
71 1 0.506482 0.596053 0.0859381
150 1 0.512719 0.494227 0.181782
169 1 0.410499 0.577434 0.190769
157 1 0.796329 0.402692 0.199062
56 1 0.611348 0.498294 0.103483
55 1 0.697177 0.407862 0.0900845
44 1 0.988764 0.483297 0.0963418
60 1 0.804701 0.50589 0.118891
61 1 0.99323 0.595489 0.0077687
79 1 0.898993 0.587008 0.100307
77 1 0.813899 0.590348 0.0027464
63 1 0.103737 0.608205 0.115802
62 1 0.101957 0.695306 0.0133431
64 1 0.00124507 0.704556 0.0912515
68 1 0.211589 0.698167 0.108459
66 1 0.312479 0.689043 0.00504966
72 1 0.392904 0.685673 0.110509
85 1 0.208736 0.789482 0.00310172
89 1 0.38434 0.791414 0.0114519
76 1 0.59862 0.677726 0.109424
91 1 0.511891 0.794599 0.112243
170 1 0.500265 0.69301 0.186803
70 1 0.499459 0.713188 0.013537
75 1 0.70276 0.609661 0.0937639
95 1 0.699205 0.765691 0.0958398
174 1 0.709742 0.693126 0.195349
80 1 0.815623 0.684434 0.0939189
178 1 0.916351 0.703223 0.170457
83 1 0.119871 0.806431 0.100429
82 1 0.0992896 0.892477 0.00271504
182 1 0.0733433 0.913648 0.189658
87 1 0.284941 0.804961 0.130818
88 1 0.205494 0.89826 0.108875
86 1 0.294193 0.900174 0.0141784
9 1 0.398223 0.97759 0.0223106
92 1 0.390453 0.882147 0.125117
11 1 0.504859 0.987695 0.0932481
15 1 0.696029 0.986674 0.0659828
96 1 0.604454 0.884309 0.091053
194 1 0.698981 0.867833 0.183678
100 1 0.793989 0.887613 0.10821
113 1 0.629336 0.97993 0.198249
94 1 0.701954 0.887048 0.0023678
19 1 0.882107 0.995527 0.088369
99 1 0.88653 0.803253 0.0827504
81 1 0.985129 0.806897 0.0086153
84 1 0.989116 0.909755 0.0692614
198 1 0.87952 0.912173 0.192311
181 1 0.990636 0.822161 0.169668
102 1 0.105244 0.120962 0.214476
108 1 0.196066 0.097383 0.30003
103 1 0.0862504 0.0132387 0.305392
205 1 0.19453 0.00731047 0.396065
202 1 0.0804072 0.116784 0.38778
206 1 0.316315 0.104712 0.392692
107 1 0.294791 0.0126263 0.29039
129 1 0.437319 0.198088 0.205736
133 1 0.582712 0.179514 0.201666
112 1 0.420537 0.0967346 0.27759
131 1 0.523155 0.198408 0.323182
229 1 0.401511 0.193552 0.399346
210 1 0.503847 0.0911869 0.393951
116 1 0.603794 0.0826003 0.313935
135 1 0.680911 0.192646 0.280344
214 1 0.717595 0.112697 0.391641
101 1 0.991519 0.00507355 0.202409
104 1 0.977793 0.112336 0.279274
120 1 0.804822 0.109039 0.287396
119 1 0.883352 0.00853838 0.291544
122 1 0.0879072 0.294544 0.20461
123 1 0.104215 0.211395 0.31144
124 1 0.0105728 0.300858 0.305996
245 1 0.186351 0.386119 0.393263
225 1 0.208792 0.210959 0.396171
127 1 0.316862 0.203797 0.292174
145 1 0.204062 0.395673 0.208715
128 1 0.208958 0.3113 0.299157
226 1 0.299054 0.297421 0.399828
147 1 0.31828 0.397916 0.298571
130 1 0.512988 0.30499 0.203758
132 1 0.405568 0.305525 0.30405
151 1 0.509567 0.397368 0.307826
230 1 0.519186 0.31098 0.388477
136 1 0.609774 0.295954 0.299814
140 1 0.781477 0.291325 0.305623
155 1 0.702444 0.390289 0.272841
257 1 0.795286 0.396528 0.390569
121 1 0.984701 0.207822 0.200369
221 1 0.983737 0.212549 0.382124
139 1 0.895539 0.204207 0.30079
141 1 0.00379158 0.406276 0.20673
143 1 0.118742 0.416514 0.3015
163 1 0.0941809 0.586012 0.300633
242 1 0.115197 0.512227 0.394858
148 1 0.225254 0.495355 0.30196
165 1 0.217381 0.59381 0.207268
265 1 0.212272 0.59615 0.38581
153 1 0.59847 0.407077 0.206188
152 1 0.401763 0.498711 0.306906
250 1 0.512541 0.522599 0.39943
154 1 0.711364 0.509523 0.211807
156 1 0.604385 0.523856 0.314645
173 1 0.621747 0.597774 0.207554
253 1 0.61205 0.40904 0.382517
254 1 0.709648 0.496371 0.390744
144 1 0.992049 0.494551 0.320033
160 1 0.809323 0.499854 0.299159
158 1 0.887534 0.503555 0.213565
159 1 0.888513 0.402052 0.295381
162 1 0.0900862 0.703574 0.202892
168 1 0.185602 0.695053 0.301412
164 1 0.00203257 0.707118 0.305949
185 1 0.185238 0.798422 0.207371
167 1 0.312317 0.619078 0.298282
166 1 0.313559 0.695271 0.206319
187 1 0.285096 0.780058 0.308459
189 1 0.400678 0.793097 0.21135
172 1 0.411679 0.686334 0.309275
171 1 0.515774 0.604713 0.284983
191 1 0.499757 0.796446 0.29749
293 1 0.580612 0.795351 0.389983
193 1 0.60346 0.78822 0.209076
177 1 0.790125 0.621251 0.218356
176 1 0.618399 0.695907 0.30697
175 1 0.71211 0.611903 0.317528
274 1 0.714006 0.726652 0.399616
161 1 0.993837 0.600317 0.202163
179 1 0.895201 0.616419 0.315573
197 1 0.813185 0.785877 0.203122
180 1 0.80512 0.716104 0.309619
199 1 0.914931 0.796299 0.268807
278 1 0.896888 0.732183 0.399031
285 1 0.18268 0.807533 0.394745
183 1 0.0864992 0.821593 0.290363
188 1 0.177067 0.908239 0.295015
186 1 0.285057 0.897292 0.22113
109 1 0.394979 0.990556 0.202797
192 1 0.398436 0.895455 0.296914
209 1 0.391554 0.997579 0.374724
286 1 0.295304 0.894443 0.393412
111 1 0.505668 0.976247 0.312307
190 1 0.501492 0.905438 0.206464
196 1 0.598148 0.905738 0.294661
289 1 0.403189 0.807471 0.392762
117 1 0.77913 0.997009 0.209984
195 1 0.695199 0.803207 0.297678
115 1 0.718881 0.982524 0.319089
200 1 0.793304 0.88155 0.30353
184 1 0.966995 0.912725 0.286953
298 1 0.886389 0.912876 0.392696
281 1 0.99668 0.806619 0.39049
302 1 0.103191 0.105505 0.579324
208 1 0.176854 0.128056 0.469126
203 1 0.102224 0.0209334 0.489592
325 1 0.188221 0.197514 0.592205
207 1 0.300368 0.00636288 0.48951
306 1 0.282845 0.0970439 0.576522
212 1 0.403827 0.118017 0.491684
216 1 0.592667 0.0876161 0.510266
211 1 0.492177 0.0219588 0.501491
233 1 0.616015 0.189607 0.415484
235 1 0.699321 0.182254 0.517668
220 1 0.794943 0.121845 0.512118
317 1 0.786288 0.0143517 0.599412
218 1 0.900515 0.118916 0.403499
217 1 0.808058 0.0110683 0.410065
201 1 0.974399 0.0221779 0.403776
204 1 0.983778 0.106495 0.510004
219 1 0.888455 0.0232378 0.520593
241 1 0.00372041 0.386258 0.402003
223 1 0.0889476 0.200526 0.495424
222 1 0.0999708 0.285024 0.400289
243 1 0.0826378 0.394975 0.499154
228 1 0.18055 0.305895 0.510978
345 1 0.1853 0.397044 0.59069
227 1 0.289702 0.214997 0.505747
329 1 0.395689 0.215256 0.590274
326 1 0.298956 0.30459 0.590827
349 1 0.396062 0.397406 0.594108
247 1 0.282473 0.398772 0.486051
249 1 0.413938 0.399039 0.401215
232 1 0.4147 0.319063 0.483817
231 1 0.495254 0.212467 0.483888
251 1 0.516295 0.39896 0.490307
333 1 0.592008 0.203116 0.586517
237 1 0.799977 0.205507 0.401397
234 1 0.696739 0.286699 0.403521
236 1 0.619895 0.310368 0.504705
255 1 0.716603 0.392455 0.484665
239 1 0.912272 0.209472 0.507427
240 1 0.800661 0.292384 0.516295
238 1 0.891189 0.319777 0.415234
224 1 0.986783 0.293987 0.509296
259 1 0.909852 0.39621 0.517516
263 1 0.0998993 0.596146 0.499315
246 1 0.307215 0.493127 0.402304
248 1 0.200919 0.49066 0.486965
346 1 0.28723 0.49622 0.593718
369 1 0.391459 0.597375 0.591259
267 1 0.287104 0.590071 0.501641
252 1 0.404015 0.488315 0.506325
271 1 0.507485 0.589917 0.512889
256 1 0.606045 0.493518 0.514204
354 1 0.705061 0.49788 0.59796
260 1 0.797768 0.478103 0.516401
273 1 0.625651 0.596276 0.431445
275 1 0.719458 0.5877 0.514186
258 1 0.886889 0.490963 0.405997
244 1 0.988462 0.486308 0.496265
262 1 0.103893 0.706897 0.404623
268 1 0.188719 0.714055 0.50472
362 1 0.0892484 0.701323 0.596517
264 1 0.0133741 0.695491 0.485939
266 1 0.28948 0.684187 0.423853
389 1 0.39902 0.797808 0.580439
366 1 0.297529 0.694402 0.587009
269 1 0.407716 0.600405 0.406131
272 1 0.405803 0.692462 0.478216
270 1 0.522093 0.68247 0.402684
370 1 0.496778 0.68821 0.580508
291 1 0.500973 0.784767 0.482329
277 1 0.788488 0.603503 0.416976
276 1 0.611819 0.713666 0.497823
280 1 0.790816 0.70744 0.506337
373 1 0.620007 0.612686 0.591737
279 1 0.899287 0.607706 0.486448
261 1 0.992613 0.605037 0.403506
378 1 0.914505 0.710648 0.590936
282 1 0.0800073 0.91745 0.401987
283 1 0.0771861 0.812515 0.504605
288 1 0.185953 0.909065 0.493118
385 1 0.19654 0.81214 0.58596
287 1 0.308821 0.821856 0.488206
386 1 0.281679 0.903643 0.588066
290 1 0.495196 0.903526 0.417938
292 1 0.40469 0.918678 0.508424
296 1 0.584565 0.873196 0.506084
390 1 0.484433 0.890032 0.597662
213 1 0.612646 0.995353 0.405307
215 1 0.693078 0.99635 0.5002
295 1 0.711998 0.849046 0.514011
294 1 0.696668 0.890193 0.4054
297 1 0.808738 0.815091 0.428778
300 1 0.825087 0.913519 0.518864
299 1 0.923245 0.804722 0.520209
284 1 0.985806 0.921328 0.494594
397 1 0.811224 0.823204 0.589901
304 1 0.0151094 0.0905864 0.699077
323 1 0.115791 0.185032 0.714952
303 1 0.125228 0.0125938 0.725269
321 1 0.0120239 0.187958 0.61417
421 1 0.0025774 0.191801 0.79811
309 1 0.394509 0.0137598 0.610559
308 1 0.216671 0.108864 0.707432
327 1 0.27803 0.195133 0.684577
312 1 0.392602 0.129792 0.679117
307 1 0.3114 0.00758663 0.707638
310 1 0.503596 0.112645 0.619686
316 1 0.592329 0.10112 0.730518
311 1 0.483054 0.00346222 0.712829
429 1 0.403868 0.194391 0.782887
314 1 0.670824 0.0903216 0.61382
337 1 0.794478 0.188158 0.613259
335 1 0.681362 0.19307 0.702988
318 1 0.896166 0.0982847 0.614583
320 1 0.804995 0.108825 0.706508
339 1 0.905151 0.187654 0.722415
322 1 0.0828388 0.27776 0.606101
343 1 0.0891875 0.396294 0.712204
328 1 0.190142 0.307244 0.689999
445 1 0.197634 0.398501 0.792705
332 1 0.394632 0.313533 0.701519
426 1 0.295588 0.310212 0.77591
353 1 0.597703 0.382467 0.601481
330 1 0.485462 0.299632 0.609198
331 1 0.5243 0.206691 0.69873
430 1 0.492157 0.294221 0.797672
336 1 0.59914 0.300203 0.696616
334 1 0.711961 0.292341 0.619686
355 1 0.717143 0.391913 0.697134
341 1 0.996222 0.396649 0.609364
338 1 0.899114 0.278048 0.625888
324 1 0.996847 0.295661 0.720226
357 1 0.812648 0.376036 0.617016
340 1 0.803657 0.283757 0.718486
365 1 0.193786 0.587067 0.603744
342 1 0.093993 0.4959 0.600977
344 1 0.0257048 0.523309 0.692077
347 1 0.287679 0.406773 0.690139
348 1 0.202659 0.518972 0.698114
367 1 0.305039 0.592288 0.70033
449 1 0.393657 0.411113 0.792871
350 1 0.503196 0.495834 0.605857
352 1 0.402035 0.487964 0.689446
351 1 0.490917 0.403607 0.707771
356 1 0.598422 0.517595 0.687059
371 1 0.491685 0.597881 0.700539
453 1 0.615331 0.421323 0.770402
454 1 0.704201 0.507936 0.775536
360 1 0.794082 0.50017 0.700012
359 1 0.919711 0.403726 0.69726
457 1 0.809403 0.402275 0.797377
358 1 0.885966 0.513753 0.603157
477 1 0.81704 0.59095 0.781991
441 1 0.994268 0.405172 0.781387
458 1 0.914908 0.50236 0.775362
363 1 0.110003 0.608239 0.686373
364 1 0.0162688 0.684843 0.715622
368 1 0.212346 0.700204 0.682258
372 1 0.38572 0.697701 0.694719
489 1 0.396765 0.777297 0.793125
473 1 0.593618 0.602288 0.788538
470 1 0.497182 0.684805 0.786381
376 1 0.579629 0.694983 0.683999
391 1 0.482711 0.780725 0.680353
375 1 0.698726 0.609057 0.686169
374 1 0.707795 0.710118 0.604441
474 1 0.688135 0.713672 0.791185
493 1 0.601638 0.798559 0.786373
361 1 0.987115 0.605965 0.601227
377 1 0.814594 0.61451 0.608502
379 1 0.896492 0.640799 0.703715
380 1 0.812811 0.725254 0.71426
382 1 0.0939778 0.917081 0.600314
305 1 0.195322 0.997683 0.614721
383 1 0.112362 0.804207 0.693109
388 1 0.194487 0.891648 0.701825
301 1 0.0067758 0.993482 0.601853
381 1 0.0103231 0.812257 0.615601
384 1 0.019234 0.91242 0.712051
387 1 0.293146 0.801392 0.690293
392 1 0.385251 0.894746 0.687383
393 1 0.595798 0.804696 0.606506
313 1 0.566307 0.993046 0.604906
396 1 0.584019 0.9051 0.70921
490 1 0.495397 0.88342 0.794518
315 1 0.684879 0.998988 0.710394
395 1 0.70088 0.802609 0.69609
394 1 0.67641 0.908238 0.620867
494 1 0.695751 0.893565 0.78682
319 1 0.898838 0.988993 0.708535
399 1 0.899937 0.808486 0.69282
400 1 0.802991 0.905637 0.698554
398 1 0.905927 0.921603 0.60486
2 1 0.10634 0.11344 0.988291
1 1 0.0070113 0.00947089 0.983115
402 1 0.12909 0.106016 0.816408
404 1 0.00583181 0.0995417 0.895401
403 1 0.122743 0.000779112 0.907479
401 1 0.0113 0.00879565 0.807242
406 1 0.306457 0.0980705 0.814904
408 1 0.215166 0.102353 0.924466
412 1 0.381123 0.0897168 0.912383
10 1 0.486322 0.0885372 0.992404
410 1 0.482786 0.097707 0.815173
416 1 0.593275 0.103055 0.913538
431 1 0.465762 0.18801 0.910442
414 1 0.679006 0.095285 0.808206
14 1 0.700631 0.109997 0.993631
435 1 0.708612 0.195128 0.897872
417 1 0.787095 0.00379555 0.810944
437 1 0.783991 0.197585 0.801343
37 1 0.794886 0.193139 0.997336
21 1 0.991649 0.198087 0.984499
420 1 0.815427 0.107938 0.895598
418 1 0.907848 0.0777056 0.803857
18 1 0.899952 0.101955 0.999056
439 1 0.891413 0.199871 0.894876
17 1 0.80612 0.00501823 0.991988
419 1 0.898305 0.00249443 0.910043
425 1 0.195388 0.228716 0.812387
422 1 0.110503 0.31493 0.812388
423 1 0.0985108 0.204541 0.905037
443 1 0.0983658 0.395962 0.912955
26 1 0.316054 0.298632 0.993064
428 1 0.2143 0.303698 0.922392
427 1 0.311623 0.207589 0.892449
432 1 0.397218 0.316642 0.888279
447 1 0.28861 0.38583 0.902408
30 1 0.518026 0.288808 0.982897
49 1 0.413783 0.394118 0.990931
433 1 0.589906 0.208474 0.821772
33 1 0.582033 0.204513 0.954253
436 1 0.591568 0.33173 0.870339
53 1 0.615437 0.386012 0.983087
434 1 0.70197 0.300212 0.809881
440 1 0.783619 0.312539 0.905752
38 1 0.885662 0.305697 0.98902
424 1 0.998601 0.2952 0.884839
438 1 0.898421 0.297683 0.801169
41 1 0.996331 0.392688 0.999709
442 1 0.098027 0.488459 0.800153
465 1 0.188847 0.5953 0.807705
444 1 0.00835177 0.49439 0.915346
461 1 0.033609 0.598622 0.801855
463 1 0.11356 0.591295 0.914926
446 1 0.291599 0.49717 0.800629
469 1 0.377134 0.599344 0.804342
448 1 0.204216 0.491518 0.905847
452 1 0.391065 0.491689 0.907557
50 1 0.529726 0.482375 0.987361
450 1 0.489401 0.520147 0.80051
451 1 0.500233 0.407882 0.868409
54 1 0.702027 0.527521 0.993855
57 1 0.78863 0.409161 0.996212
456 1 0.60558 0.495051 0.884992
455 1 0.71068 0.436674 0.889315
58 1 0.897333 0.486974 0.991564
460 1 0.808304 0.504909 0.892785
459 1 0.917767 0.401956 0.889156
479 1 0.920284 0.588244 0.885936
485 1 0.195038 0.792193 0.803784
462 1 0.105524 0.703 0.805245
468 1 0.198813 0.69889 0.907453
464 1 0.0164446 0.694798 0.901891
466 1 0.287903 0.698398 0.802252
467 1 0.299359 0.601209 0.905854
472 1 0.395056 0.701517 0.896099
471 1 0.484948 0.618254 0.907547
491 1 0.489572 0.79684 0.896702
73 1 0.601727 0.605852 0.977858
475 1 0.693658 0.608602 0.880165
93 1 0.623688 0.792584 0.999269
74 1 0.709045 0.690624 0.988984
476 1 0.602576 0.702102 0.901122
495 1 0.711138 0.799755 0.894855
97 1 0.799215 0.774124 0.979769
480 1 0.794996 0.688249 0.874598
78 1 0.899654 0.695827 0.973098
478 1 0.914784 0.703821 0.809965
483 1 0.105351 0.800049 0.908433
482 1 0.116954 0.89894 0.807065
484 1 0.00171747 0.911733 0.892952
481 1 0.008557 0.805933 0.804005
409 1 0.384008 0.999967 0.81109
405 1 0.22403 0.976562 0.812388
407 1 0.293681 0.999402 0.925801
487 1 0.304872 0.804607 0.892468
486 1 0.309701 0.88496 0.800305
488 1 0.20161 0.892118 0.931912
492 1 0.388455 0.886635 0.903534
413 1 0.577667 0.99307 0.813451
13 1 0.584063 0.982315 0.996114
90 1 0.492552 0.872584 0.993857
411 1 0.479983 0.971777 0.908067
496 1 0.595141 0.881957 0.892956
415 1 0.6867 0.997288 0.91374
500 1 0.785892 0.903597 0.898947
497 1 0.807683 0.80061 0.806627
499 1 0.910348 0.812803 0.897116
498 1 0.913815 0.909776 0.804925
98 1 0.873931 0.889603 0.985173
ITEM: TIMESTEP
1000
ITEM: NUMBER OF ATOMS
500
ITEM: BOX BOUNDS pp pp pp
-1.0773563683823539e-03 1.5875087876050326e+01
-1.0773563683823539e-03 1.5875087876050326e+01
-1.0773563683823539e-03 1.5875087876050326e+01
ITEM: ATOMS id type xs ys zs
23 1 0.145481 0.177067 0.122827
3 1 0.0995843 0.0423923 0.119871
5 1 0.190311 0.0172276 0.00576981
121 1 0.00902548 0.180371 0.122271
2 1 0.0814305 0.115889 0.0167435
8 1 0.236859 0.102849 0.175744
6 1 0.302726 0.0915543 0.0427034
12 1 0.416088 0.119536 0.14744
110 1 0.504734 0.189613 0.192601
16 1 0.575979 0.107334 0.116419
10 1 0.465788 0.126744 0.0208512
114 1 0.713443 0.123191 0.178959
15 1 0.729971 0.013241 0.0103928
113 1 0.620209 0.0342252 0.196699
117 1 0.709633 0.0139874 0.142584
33 1 0.615831 0.135292 0.0143015
20 1 0.846136 0.10769 0.167539
4 1 0.935162 0.0364836 0.108287
39 1 0.86049 0.196708 0.105117
1 1 0.963293 0.0896838 0.0281417
14 1 0.817093 0.0992022 0.0384494
22 1 0.095111 0.243678 0.00341355
24 1 0.00173488 0.286149 0.136763
122 1 0.124863 0.29747 0.129371
27 1 0.304816 0.201291 0.116441
28 1 0.226088 0.294833 0.0799485
32 1 0.385649 0.271522 0.150883
49 1 0.394996 0.374184 0.0763943
29 1 0.404571 0.241076 0.0294741
31 1 0.527147 0.2401 0.103052
51 1 0.525159 0.376504 0.123058
35 1 0.713295 0.205867 0.0476195
36 1 0.652594 0.326272 0.0711479
40 1 0.774416 0.334848 0.0611841
137 1 0.753323 0.229442 0.159237
157 1 0.732604 0.392855 0.184286
133 1 0.618458 0.272862 0.18975
138 1 0.849434 0.292933 0.197222
59 1 0.899257 0.385248 0.100675
38 1 0.885095 0.281932 0.0112174
43 1 0.0392161 0.416532 0.104374
48 1 0.140905 0.513219 0.0904544
45 1 0.165495 0.402041 0.0335334
63 1 0.0488058 0.585483 0.0272795
145 1 0.173118 0.405642 0.191736
161 1 0.00352765 0.562941 0.172663
47 1 0.222859 0.42626 0.142248
46 1 0.273396 0.466664 0.0152831
67 1 0.272191 0.591963 0.105118
52 1 0.319054 0.503713 0.163399
149 1 0.419148 0.409268 0.176056
56 1 0.519495 0.532609 0.112246
50 1 0.403695 0.493446 0.074037
55 1 0.632546 0.460985 0.130449
60 1 0.754648 0.49131 0.0880608
53 1 0.647937 0.437416 0.00415648
44 1 0.964945 0.501183 0.0702435
158 1 0.851828 0.492202 0.152343
177 1 0.801555 0.59593 0.174878
64 1 0.00165446 0.689313 0.101985
68 1 0.185126 0.670041 0.0671381
83 1 0.118045 0.793669 0.124206
165 1 0.166189 0.611832 0.188613
162 1 0.101886 0.65235 0.166546
87 1 0.305317 0.746973 0.08468
185 1 0.212135 0.781755 0.183573
166 1 0.312032 0.675432 0.186745
71 1 0.422024 0.616471 0.110554
72 1 0.432353 0.711489 0.0305456
76 1 0.547496 0.692462 0.0834087
170 1 0.498042 0.684897 0.192247
189 1 0.405096 0.761062 0.170861
75 1 0.660253 0.605538 0.091057
95 1 0.666374 0.761004 0.108715
174 1 0.726318 0.691752 0.199206
80 1 0.795616 0.697241 0.0753162
74 1 0.695591 0.669571 0.000452471
79 1 0.924048 0.619841 0.112742
77 1 0.827973 0.603632 0.00222168
178 1 0.876998 0.748348 0.164825
181 1 0.981015 0.79824 0.196159
78 1 0.914514 0.733567 0.0090833
85 1 0.195745 0.811713 0.0016897
82 1 0.0723893 0.945591 0.0277108
88 1 0.165671 0.914391 0.116654
81 1 0.0258048 0.832503 0.0264415
84 1 0.0309634 0.927444 0.165795
7 1 0.270858 0.974726 0.119055
86 1 0.27066 0.873806 0.0275034
9 1 0.379457 0.978372 0.0118946
92 1 0.398151 0.864256 0.106603
186 1 0.292148 0.859632 0.197466
109 1 0.387401 0.989553 0.159374
91 1 0.512945 0.832218 0.0941298
11 1 0.494649 0.980015 0.0880331
93 1 0.587137 0.80497 0.00845363
96 1 0.620896 0.888508 0.105139
100 1 0.720982 0.896205 0.127276
13 1 0.614324 0.968272 0.0193624
19 1 0.836642 0.981194 0.0986545
99 1 0.912216 0.857903 0.10637
198 1 0.868625 0.951539 0.199239
97 1 0.816006 0.836973 0.0507294
98 1 0.926382 0.938412 0.00770832
102 1 0.062365 0.121712 0.246235
103 1 0.155493 0.00663957 0.241292
205 1 0.174571 0.0204897 0.391256
202 1 0.117417 0.0967974 0.35282
225 1 0.187503 0.184893 0.357904
106 1 0.340128 0.109074 0.242026
108 1 0.232189 0.070913 0.284909
107 1 0.35273 0.0211579 0.324674
112 1 0.407725 0.12148 0.392012
210 1 0.528391 0.0853028 0.397673
111 1 0.468625 0.0859298 0.241313
290 1 0.489456 0.00350527 0.300556
116 1 0.602874 0.159713 0.272035
120 1 0.725067 0.0969528 0.326129
213 1 0.650463 0.040638 0.378424
118 1 0.976961 0.194116 0.210142
101 1 0.979135 0.0302513 0.229234
104 1 0.958832 0.14563 0.340932
119 1 0.850389 0.0373329 0.284298
139 1 0.826843 0.163401 0.287603
218 1 0.882489 0.0925351 0.397755
123 1 0.0822872 0.245384 0.259302
128 1 0.185806 0.308449 0.299412
143 1 0.0755886 0.333046 0.246455
222 1 0.0864282 0.332451 0.385922
125 1 0.233772 0.242828 0.221968
126 1 0.304558 0.349393 0.212225
129 1 0.354527 0.212488 0.269021
127 1 0.292589 0.218966 0.362726
132 1 0.382832 0.331114 0.301999
131 1 0.482874 0.209215 0.327008
130 1 0.499755 0.316971 0.250309
136 1 0.57889 0.270778 0.34199
134 1 0.687497 0.328824 0.294285
135 1 0.740891 0.229906 0.32189
124 1 0.936291 0.248327 0.29998
140 1 0.838988 0.355231 0.327965
141 1 0.941114 0.378382 0.204982
241 1 0.943436 0.368554 0.364795
142 1 0.0706871 0.449606 0.22911
163 1 0.0772062 0.547378 0.289956
242 1 0.0337373 0.449986 0.354155
148 1 0.190284 0.44305 0.343546
265 1 0.191232 0.583885 0.362355
146 1 0.222311 0.540785 0.237625
147 1 0.299925 0.441283 0.296436
167 1 0.311609 0.550509 0.317979
150 1 0.502657 0.48339 0.225025
169 1 0.403813 0.579494 0.202927
151 1 0.511526 0.406949 0.346049
153 1 0.588904 0.415543 0.222224
152 1 0.41266 0.473696 0.343956
171 1 0.483101 0.58069 0.31436
155 1 0.696314 0.422086 0.322025
154 1 0.685313 0.547548 0.218625
156 1 0.615656 0.503157 0.329554
160 1 0.767602 0.546066 0.313048
144 1 0.93364 0.498674 0.271089
159 1 0.823034 0.456132 0.258181
258 1 0.848614 0.498589 0.393643
261 1 0.964679 0.559575 0.387614
168 1 0.194611 0.706506 0.264463
285 1 0.14034 0.75816 0.37238
183 1 0.0451758 0.755743 0.247652
262 1 0.0565033 0.648004 0.368548
266 1 0.2873 0.695954 0.354038
269 1 0.37993 0.636281 0.379715
187 1 0.400065 0.799795 0.329762
172 1 0.406136 0.682671 0.293979
191 1 0.491113 0.797888 0.272893
176 1 0.577921 0.688754 0.329592
173 1 0.60393 0.618121 0.215092
293 1 0.630425 0.794657 0.369805
193 1 0.605763 0.756419 0.212308
175 1 0.705382 0.652488 0.341893
195 1 0.71956 0.750841 0.332594
164 1 0.947865 0.661092 0.254772
179 1 0.87374 0.628108 0.288212
180 1 0.82672 0.684066 0.301201
199 1 0.973236 0.766696 0.320211
182 1 0.139282 0.873278 0.250182
201 1 0.058888 0.98555 0.352184
282 1 0.0885085 0.892248 0.329871
105 1 0.25527 0.955975 0.256034
188 1 0.267867 0.806614 0.297613
286 1 0.313774 0.920813 0.378401
192 1 0.404689 0.915398 0.237866
190 1 0.518197 0.919113 0.20626
289 1 0.511308 0.864167 0.37676
194 1 0.628705 0.862755 0.25561
197 1 0.758128 0.82668 0.206112
196 1 0.603491 0.956186 0.287294
115 1 0.751391 0.942496 0.265525
200 1 0.850125 0.828922 0.294663
184 1 0.956222 0.928139 0.259463
217 1 0.851194 0.949345 0.349502
208 1 0.132435 0.143169 0.515209
203 1 0.111581 0.0137231 0.489171
204 1 0.025635 0.0880817 0.468358
206 1 0.279753 0.0804056 0.421135
306 1 0.339251 0.152852 0.582819
212 1 0.391473 0.101632 0.481933
305 1 0.259517 0.0379602 0.551456
231 1 0.497581 0.190837 0.478469
310 1 0.477983 0.0766246 0.571043
214 1 0.757549 0.034643 0.429185
216 1 0.601233 0.105103 0.515534
233 1 0.639432 0.181627 0.409677
235 1 0.711022 0.118115 0.564288
237 1 0.792873 0.169761 0.439781
215 1 0.729248 0.00456695 0.506882
220 1 0.840752 0.0720505 0.537074
219 1 0.960941 0.0117318 0.455448
239 1 0.923483 0.175993 0.51272
318 1 0.937947 0.0719295 0.593481
245 1 0.197505 0.367359 0.422201
221 1 0.0362306 0.219468 0.410779
223 1 0.0497049 0.249261 0.550188
228 1 0.156211 0.251404 0.466711
322 1 0.166114 0.346746 0.57584
226 1 0.321668 0.32199 0.409082
227 1 0.263634 0.201263 0.478117
326 1 0.269904 0.306449 0.552774
232 1 0.371135 0.252153 0.570345
229 1 0.426747 0.254412 0.433974
230 1 0.506818 0.324702 0.473854
249 1 0.410991 0.396509 0.436647
234 1 0.68685 0.301036 0.423022
236 1 0.657464 0.24574 0.529436
240 1 0.778584 0.304568 0.522175
337 1 0.799467 0.219133 0.59009
238 1 0.875602 0.267935 0.413467
224 1 0.975785 0.361665 0.461786
338 1 0.908416 0.318633 0.552803
243 1 0.112187 0.410829 0.513233
263 1 0.0686263 0.568185 0.488489
248 1 0.180854 0.497006 0.452846
244 1 0.0214953 0.484124 0.48111
247 1 0.320983 0.419379 0.521228
246 1 0.289374 0.468366 0.422114
252 1 0.366387 0.525259 0.510454
365 1 0.245463 0.56666 0.5508
250 1 0.474863 0.517551 0.443684
253 1 0.593914 0.411696 0.434865
251 1 0.453012 0.41972 0.559485
273 1 0.570372 0.58535 0.400457
350 1 0.499713 0.525633 0.574406
257 1 0.791804 0.411044 0.453212
254 1 0.712343 0.543225 0.437464
255 1 0.699462 0.426622 0.501184
256 1 0.609003 0.542737 0.506442
260 1 0.78769 0.528076 0.546036
353 1 0.601868 0.406316 0.581292
259 1 0.898384 0.452192 0.516623
358 1 0.942396 0.489259 0.560809
268 1 0.158687 0.638007 0.479464
264 1 0.041128 0.701853 0.492981
369 1 0.39477 0.653973 0.593004
267 1 0.290775 0.614812 0.452362
366 1 0.282025 0.693408 0.573302
272 1 0.363214 0.755854 0.479933
287 1 0.239172 0.791278 0.456413
271 1 0.452987 0.640599 0.480284
389 1 0.454961 0.797537 0.578073
270 1 0.49984 0.733902 0.411278
370 1 0.540337 0.728894 0.594018
276 1 0.590011 0.663032 0.489288
274 1 0.666249 0.67587 0.456792
275 1 0.712117 0.623896 0.570486
295 1 0.72553 0.789434 0.49073
278 1 0.935149 0.686317 0.424035
277 1 0.82247 0.620703 0.451174
280 1 0.817473 0.70884 0.506577
279 1 0.940013 0.616771 0.53822
299 1 0.938241 0.798805 0.517538
281 1 0.0575561 0.807747 0.42397
283 1 0.166884 0.803577 0.514196
288 1 0.196432 0.907388 0.40197
284 1 0.0491339 0.907399 0.493565
382 1 0.175708 0.92282 0.53918
207 1 0.323555 0.922071 0.511014
386 1 0.30053 0.837082 0.587558
292 1 0.373566 0.816352 0.45427
309 1 0.37963 0.983635 0.571612
209 1 0.432939 0.985374 0.447937
211 1 0.578219 0.974337 0.474558
291 1 0.595599 0.811388 0.501813
390 1 0.45715 0.870034 0.524749
296 1 0.620898 0.915696 0.420994
294 1 0.729512 0.895787 0.404828
313 1 0.607598 0.988091 0.571909
394 1 0.7226 0.920483 0.564669
298 1 0.946479 0.887911 0.412415
297 1 0.825472 0.804319 0.411078
300 1 0.825863 0.904672 0.482521
397 1 0.832394 0.830435 0.576908
398 1 0.955831 0.931521 0.581196
302 1 0.0563582 0.119912 0.605589
325 1 0.181456 0.199142 0.603765
303 1 0.169885 0.0388541 0.668683
402 1 0.115342 0.148195 0.749502
401 1 0.0525885 0.0511078 0.780238
308 1 0.2567 0.134066 0.682525
312 1 0.387109 0.0776806 0.672903
406 1 0.291868 0.0842908 0.758097
333 1 0.581756 0.179508 0.611349
316 1 0.57668 0.0584385 0.695255
331 1 0.471182 0.13177 0.745498
409 1 0.446823 0.0205362 0.754563
314 1 0.701665 0.0501823 0.650133
335 1 0.69231 0.192236 0.663636
414 1 0.68733 0.0793123 0.765947
437 1 0.791569 0.194435 0.765368
433 1 0.639946 0.190087 0.796761
304 1 0.987988 0.124999 0.731419
320 1 0.835969 0.0603731 0.679202
339 1 0.845348 0.152168 0.654401
418 1 0.893364 0.117158 0.79883
323 1 0.102656 0.249283 0.682803
324 1 0.0320027 0.336063 0.666581
422 1 0.111372 0.277021 0.781092
349 1 0.387736 0.356008 0.653819
327 1 0.314204 0.233165 0.686889
328 1 0.229973 0.347404 0.66136
347 1 0.312108 0.343553 0.747002
329 1 0.451736 0.21106 0.648841
332 1 0.438439 0.265139 0.764264
330 1 0.527339 0.329128 0.606553
336 1 0.572832 0.257319 0.729422
351 1 0.54417 0.398338 0.729472
334 1 0.685912 0.335545 0.61696
434 1 0.669754 0.319304 0.731457
321 1 0.962342 0.240076 0.64672
341 1 0.992244 0.394664 0.604644
340 1 0.829872 0.306158 0.681014
359 1 0.912152 0.396854 0.715831
441 1 0.998929 0.375542 0.792035
438 1 0.947437 0.246282 0.758001
343 1 0.137902 0.415885 0.711386
342 1 0.119066 0.487021 0.614802
344 1 0.0250786 0.46482 0.702073
363 1 0.0850616 0.571616 0.732975
361 1 0.0649363 0.588868 0.621501
345 1 0.251576 0.433679 0.608692
346 1 0.365108 0.510841 0.632599
348 1 0.235176 0.508315 0.697767
367 1 0.31848 0.588153 0.698755
446 1 0.345343 0.492871 0.773978
355 1 0.597826 0.448279 0.709294
352 1 0.470108 0.484353 0.710458
356 1 0.539991 0.54751 0.792063
354 1 0.693933 0.501438 0.649555
357 1 0.769639 0.400784 0.600864
457 1 0.750717 0.432694 0.721532
360 1 0.864386 0.4682 0.67482
458 1 0.816756 0.521455 0.782233
379 1 0.942034 0.578397 0.680328
461 1 0.949512 0.580894 0.792307
362 1 0.195163 0.607516 0.658704
385 1 0.187641 0.742432 0.641327
364 1 0.0891965 0.683545 0.715746
381 1 0.0970334 0.787451 0.61171
481 1 0.042323 0.784347 0.798654
368 1 0.216517 0.733415 0.782041
372 1 0.368254 0.747223 0.677502
466 1 0.304379 0.667899 0.783537
373 1 0.598176 0.627832 0.628558
371 1 0.476435 0.64608 0.691553
473 1 0.587744 0.620783 0.760703
470 1 0.488039 0.716419 0.798671
376 1 0.579854 0.738437 0.695958
375 1 0.724051 0.621888 0.690583
374 1 0.687057 0.782026 0.606211
474 1 0.694409 0.686655 0.797738
395 1 0.666445 0.786983 0.725695
497 1 0.791755 0.772017 0.780738
378 1 0.989127 0.716949 0.633686
477 1 0.825721 0.654856 0.745176
377 1 0.835122 0.612431 0.619654
380 1 0.832483 0.746326 0.645179
478 1 0.950884 0.696948 0.739819
383 1 0.126684 0.826399 0.770984
388 1 0.195124 0.905794 0.699168
301 1 0.0567216 0.9838 0.656642
384 1 0.0648593 0.868611 0.612025
482 1 0.0456885 0.916395 0.76896
307 1 0.270547 0.967215 0.661831
387 1 0.289818 0.81799 0.720275
392 1 0.376677 0.929116 0.686352
486 1 0.303326 0.953935 0.788161
311 1 0.49655 0.945343 0.640312
391 1 0.460297 0.826058 0.700934
396 1 0.564026 0.880781 0.756015
393 1 0.612901 0.88065 0.621143
315 1 0.703415 0.938569 0.7253