ITEM: TIMESTEP
0
ITEM: NUMBER OF ATOMS
500
ITEM: BOX BOUNDS pp pp pp
0.0000000000000000e+00 1.5874010519681994e+01
0.0000000000000000e+00 1.5874010519681994e+01
0.0000000000000000e+00 1.5874010519681994e+01
ITEM: ATOMS id type xs ys zs
438 1 0.0967404 0.192851 0.10708
1 1 0.0880612 0.0763201 0.0648089
103 1 0.184582 0.0110448 0.0524665
180 1 0.0805838 0.0369021 0.192034
121 1 0.0153279 0.172324 0.184917
301 1 0.206009 0.0976064 0.147793
444 1 0.209361 0.141718 0.0183035
468 1 0.308268 0.0839485 0.0954176
403 1 0.375167 0.193323 0.141675
346 1 0.37545 0.047523 0.0142928
106 1 0.443074 0.0648416 0.124534
239 1 0.524502 0.159698 0.162276
197 1 0.510161 0.180153 0.0455834
429 1 0.515961 0.0131392 0.0286129
165 1 0.555865 0.00289033 0.196065
235 1 0.60646 0.0923444 0.0168501
95 1 0.713726 0.156368 0.0705376
311 1 0.658931 0.0374636 0.114467
100 1 0.775661 0.0495431 0.13506
411 1 0.735799 0.0358487 0.0120814
16 1 0.829932 0.188084 0.0507415
500 1 0.932419 0.112323 0.120934
171 1 0.164197 0.339981 0.0830263
59 1 0.0355312 0.3216 0.193253
441 1 0.0350524 0.348201 0.0424275
152 1 0.180241 0.333607 0.182689
33 1 0.333543 0.221574 0.0213827
39 1 0.245838 0.239398 0.123885
143 1 0.297331 0.344626 0.0670749
125 1 0.579762 0.274871 0.0951793
140 1 0.47269 0.28171 0.154681
150 1 0.412478 0.348268 0.11312
313 1 0.667276 0.214889 0.121823
435 1 0.714896 0.280822 0.0414055
423 1 0.779773 0.241178 0.120203
404 1 0.800545 0.374125 0.0878593
54 1 0.944989 0.249945 0.124658
161 1 0.927095 0.393028 0.10447
21 1 0.99314 0.215516 0.0153856
432 1 0.167711 0.475972 0.150057
18 1 0.0514834 0.444065 0.13187
149 1 0.0690751 0.560325 0.118901
448 1 0.17828 0.430238 0.0245362
463 1 0.0690028 0.515069 0.00834179
4 1 0.302975 0.482488 0.0333363
471 1 0.285771 0.418321 0.175873
256 1 0.207002 0.559929 0.0319009
60 1 0.260275 0.552161 0.180436
130 1 0.536778 0.402381 0.0571019
71 1 0.593716 0.523239 0.135371
50 1 0.44367 0.572708 0.0389941
156 1 0.438122 0.495984 0.122468
425 1 0.424297 0.421293 0.00441955
233 1 0.504777 0.433451 0.187659
157 1 0.66418 0.427338 0.16063
434 1 0.710435 0.401123 0.0485042
57 1 0.720919 0.52673 0.0608047
260 1 0.708163 0.580145 0.189268
419 1 0.805723 0.493588 0.139651
262 1 0.930731 0.597345 0.164329
28 1 0.929211 0.504007 0.0528814
375 1 0.838954 0.592934 0.0197472
45 1 0.171781 0.653382 0.138341
158 1 0.0411803 0.692829 0.177368
68 1 0.137364 0.781845 0.138186
78 1 0.0423022 0.771448 0.0465902
380 1 0.101164 0.642106 0.00806341
332 1 0.312931 0.629397 0.104282
61 1 0.267617 0.765291 0.1161
166 1 0.206139 0.737412 0.0140309
427 1 0.363024 0.715172 0.0288557
30 1 0.347776 0.712776 0.193166
36 1 0.44245 0.612601 0.149947
56 1 0.437122 0.759279 0.132504
465 1 0.489008 0.719335 0.0584748
172 1 0.587797 0.7509 0.136243
51 1 0.573691 0.634234 0.199665
87 1 0.576646 0.799969 0.00758822
251 1 0.604992 0.635426 0.0593269
492 1 0.7138 0.680568 0.097974
80 1 0.774143 0.732967 0.00191601
195 1 0.811774 0.634374 0.14103
77 1 0.905628 0.729664 0.128377
168 1 0.98043 0.640726 0.0664279
421 1 0.100794 0.908371 0.0728586
498 1 0.192189 0.985883 0.17294
212 1 0.259414 0.890546 0.0834207
29 1 0.373754 0.946374 0.0832064
82 1 0.319777 0.976231 0.199074
173 1 0.401623 0.843952 0.0637023
186 1 0.533344 0.87145 0.111358
327 1 0.457637 0.953243 0.189811
13 1 0.797665 0.803675 0.0986173
110 1 0.638711 0.938118 0.00371006
184 1 0.648935 0.907404 0.168618
96 1 0.761804 0.927115 0.0707913
7 1 0.677769 0.807673 0.102487
296 1 0.775169 0.8934 0.175393
64 1 0.922265 0.847209 0.0458333
409 1 0.879256 0.97763 0.109727
477 1 0.989893 0.914832 0.1411
181 1 0.885993 0.858368 0.18228
3 1 0.986788 0.990188 0.0478572
193 1 0.0892768 0.135852 0.28919
6 1 0.00607118 0.169911 0.387467
104 1 0.0296301 0.0305284 0.333587
206 1 0.278644 0.180026 0.249172
126 1 0.213501 0.0699562 0.298416
249 1 0.323297 0.0687132 0.2509
86 1 0.272338 0.186537 0.359326
131 1 0.365343 0.0309136 0.368404
236 1 0.452204 0.108123 0.260699
343 1 0.554196 0.128769 0.361402
190 1 0.634578 0.0851788 0.22657
284 1 0.69182 0.0791812 0.354991
137 1 0.761198 0.101429 0.283849
402 1 0.827159 0.168241 0.200929
97 1 0.950836 0.0295548 0.22077
98 1 0.91102 0.158847 0.28478
138 1 0.856475 0.00985009 0.312611
225 1 0.834201 0.166861 0.371629
127 1 0.164979 0.215777 0.224708
426 1 0.0608152 0.245909 0.252794
141 1 0.0466509 0.326152 0.373839
123 1 0.137558 0.22457 0.381675
111 1 0.184937 0.316818 0.300318
32 1 0.346076 0.30066 0.242111
250 1 0.330474 0.321707 0.369843
120 1 0.407813 0.208137 0.309365
490 1 0.566985 0.204107 0.260285
483 1 0.489203 0.333837 0.303539
310 1 0.599903 0.268588 0.368392
34 1 0.746041 0.345678 0.207078
135 1 0.600893 0.32514 0.225304
159 1 0.681612 0.207854 0.252618
40 1 0.716096 0.355715 0.322199
237 1 0.689027 0.220232 0.384485
163 1 0.886882 0.310928 0.204395
241 1 0.809241 0.256445 0.285262
101 1 0.935039 0.284861 0.306664
35 1 0.846452 0.368368 0.358003
142 1 0.0920322 0.430827 0.254004
48 1 0.119781 0.580331 0.227831
255 1 0.147459 0.439065 0.34229
243 1 0.0158226 0.522228 0.359979
117 1 0.154633 0.57347 0.357095
132 1 0.244165 0.440671 0.287075
44 1 0.381483 0.559117 0.2274
122 1 0.249238 0.531447 0.380316
366 1 0.398854 0.434237 0.253345
269 1 0.378808 0.46349 0.352216
155 1 0.548181 0.476375 0.286658
222 1 0.598042 0.418004 0.292559
257 1 0.467955 0.551354 0.27421
76 1 0.649622 0.583758 0.309862
314 1 0.73049 0.468363 0.296781
218 1 0.745445 0.582351 0.381673
459 1 0.846082 0.429864 0.227973
424 1 0.973864 0.400613 0.302751
293 1 0.940883 0.525554 0.245137
497 1 0.803887 0.562799 0.262309
145 1 0.890291 0.519776 0.352711
99 1 0.0129965 0.798805 0.214993
187 1 0.0184941 0.628707 0.298317
199 1 0.145936 0.735247 0.270088
288 1 0.101814 0.700068 0.385463
270 1 0.245279 0.661236 0.229129
167 1 0.329195 0.625445 0.320892
369 1 0.352818 0.74637 0.301781
254 1 0.237438 0.702647 0.366416
230 1 0.596401 0.757306 0.288307
74 1 0.475415 0.691533 0.243082
200 1 0.49581 0.738901 0.375642
258 1 0.567759 0.61566 0.358751
107 1 0.437881 0.64015 0.397379
91 1 0.679331 0.699428 0.218358
55 1 0.78282 0.699847 0.336389
164 1 0.890676 0.66301 0.297244
297 1 0.814539 0.732941 0.204818
385 1 0.9836 0.758348 0.322672
119 1 0.0867735 0.884184 0.226134
290 1 0.175938 0.9428 0.269319
283 1 0.0837831 0.828233 0.352685
191 1 0.120317 0.949089 0.389387
19 1 0.222225 0.830115 0.207089
169 1 0.367948 0.844641 0.208151
196 1 0.251193 0.817913 0.279476
109 1 0.262348 0.945163 0.343883
170 1 0.340378 0.897649 0.346377
274 1 0.50219 0.997351 0.321966
25 1 0.541479 0.880201 0.32709
92 1 0.477202 0.812929 0.251015
278 1 0.409581 0.917791 0.325741
94 1 0.775633 0.813218 0.271241
213 1 0.754137 0.973426 0.234934
276 1 0.657335 0.8458 0.264095
93 1 0.628468 0.981451 0.305599
219 1 0.741774 0.936434 0.362131
400 1 0.744427 0.81603 0.39172
105 1 0.957654 0.92844 0.288155
174 1 0.894627 0.83701 0.312102
298 1 0.0240242 0.0696164 0.449723
211 1 0.146633 0.0759735 0.542364
202 1 0.0389442 0.150335 0.537158
312 1 0.147416 0.0921773 0.400364
372 1 0.172308 0.169429 0.504242
24 1 0.294946 0.189032 0.427789
406 1 0.285038 0.0578474 0.461197
349 1 0.274641 0.147552 0.563579
334 1 0.387116 0.171768 0.515652
493 1 0.363627 0.0603876 0.581088
114 1 0.427962 0.126027 0.416503
253 1 0.506238 0.0817687 0.538846
318 1 0.659651 0.130706 0.465113
322 1 0.613095 0.00777074 0.450794
214 1 0.789941 0.0604343 0.448609
420 1 0.626722 0.131982 0.590208
399 1 0.652769 0.00234769 0.591531
431 1 0.765903 0.141976 0.570735
220 1 0.910081 0.0294994 0.424304
108 1 0.903872 0.125534 0.5073
279 1 0.831726 0.00445125 0.573661
102 1 0.195908 0.325 0.460275
148 1 0.113248 0.265337 0.549008
267 1 0.000398607 0.321193 0.56151
242 1 0.0884209 0.389489 0.484083
46 1 0.284479 0.388446 0.411085
476 1 0.298943 0.285851 0.505009
357 1 0.230835 0.37907 0.589551
189 1 0.374212 0.39872 0.498997
391 1 0.462629 0.277543 0.402442
234 1 0.582263 0.390134 0.450134
326 1 0.54525 0.202985 0.482731
272 1 0.433216 0.284329 0.528556
124 1 0.590185 0.306251 0.546176
339 1 0.649035 0.245689 0.573661
316 1 0.749114 0.23195 0.505839
299 1 0.721939 0.338811 0.423774
134 1 0.846425 0.250446 0.446655
323 1 0.975996 0.258912 0.469472
38 1 0.966059 0.387119 0.424007
263 1 0.871328 0.327232 0.523221
245 1 0.0591635 0.543378 0.577547
285 1 0.0657923 0.522196 0.48705
446 1 0.196859 0.45317 0.464525
481 1 0.201023 0.549044 0.565516
128 1 0.394191 0.548046 0.456668
365 1 0.298027 0.516267 0.555643
475 1 0.465391 0.403172 0.438995
287 1 0.506499 0.514869 0.40841
53 1 0.502481 0.409387 0.570909
355 1 0.548036 0.505053 0.546089
454 1 0.460666 0.572481 0.526628
154 1 0.641133 0.475993 0.416414
292 1 0.628065 0.595827 0.467156
240 1 0.778377 0.474508 0.435785
252 1 0.689087 0.406912 0.518278
238 1 0.713444 0.57081 0.546892
360 1 0.836539 0.436225 0.537118
43 1 0.92839 0.491929 0.464995
273 1 0.964708 0.441469 0.568579
147 1 0.916587 0.598349 0.598692
201 1 0.171561 0.618682 0.470654
264 1 0.0430552 0.683416 0.542238
397 1 0.194267 0.737098 0.530648
321 1 0.0589191 0.786986 0.491528
265 1 0.299448 0.643766 0.486234
485 1 0.308919 0.766977 0.516011
183 1 0.384549 0.749182 0.41378
247 1 0.342491 0.665591 0.587866
390 1 0.480281 0.702427 0.506333
175 1 0.597886 0.744201 0.525669
271 1 0.658422 0.700661 0.40775
381 1 0.734809 0.712583 0.540222
160 1 0.848574 0.612432 0.430738
58 1 0.982011 0.64783 0.438454
177 1 0.85943 0.732955 0.417332
266 1 0.843179 0.616645 0.523255
176 1 0.905491 0.727689 0.561252
294 1 0.955683 0.776973 0.454537
364 1 0.115781 0.872095 0.514
303 1 0.0676305 0.986442 0.537578
26 1 0.198687 0.820585 0.406733
291 1 0.295711 0.870698 0.482569
113 1 0.207176 0.973145 0.494197
192 1 0.230074 0.857038 0.595606
209 1 0.337665 0.959489 0.579464
188 1 0.413447 0.996778 0.492059
410 1 0.45392 0.842598 0.508655
396 1 0.520914 0.998061 0.428828
371 1 0.457862 0.874214 0.435993
307 1 0.529344 0.951413 0.545228
470 1 0.548982 0.854604 0.58045
210 1 0.615332 0.880303 0.443901
395 1 0.72572 0.964113 0.494402
277 1 0.6903 0.856522 0.564581
382 1 0.622345 0.80105 0.416785
178 1 0.98941 0.914245 0.437347
47 1 0.952528 0.99031 0.560941
462 1 0.803451 0.831076 0.510838
217 1 0.84836 0.914942 0.435279
115 1 0.91066 0.858465 0.561994
488 1 0.0266439 0.0315342 0.681658
450 1 0.125803 0.106862 0.703076
227 1 0.168926 0.146193 0.657341
437 1 0.0271518 0.164964 0.665648
306 1 0.221222 0.00447033 0.624198
302 1 0.308009 0.119685 0.697812
208 1 0.339968 0.00349738 0.727401
330 1 0.434812 0.154825 0.638208
337 1 0.528394 0.187052 0.619139
231 1 0.56043 0.136872 0.745071
370 1 0.508072 0.0330421 0.670539
416 1 0.442034 0.087613 0.746021
335 1 0.619536 0.014841 0.682609
415 1 0.765636 0.0458429 0.675891
373 1 0.695808 0.195371 0.690459
20 1 0.694129 0.0870026 0.769345
204 1 0.94687 0.182672 0.754012
221 1 0.876109 0.0843838 0.650963
478 1 0.925598 0.0587566 0.772969
198 1 0.823797 0.148181 0.749595
324 1 0.111328 0.284742 0.677222
261 1 0.0109382 0.32046 0.72951
353 1 0.329248 0.39744 0.632199
89 1 0.229299 0.224161 0.737893
309 1 0.250015 0.271338 0.62009
351 1 0.202773 0.368803 0.714294
151 1 0.346388 0.229166 0.653228
447 1 0.360968 0.33336 0.738949
224 1 0.473812 0.30588 0.649691
413 1 0.461464 0.212526 0.771751
469 1 0.534532 0.354069 0.79967
433 1 0.579494 0.266626 0.706255
350 1 0.61036 0.370413 0.6474
246 1 0.742149 0.330309 0.607511
356 1 0.678653 0.322975 0.739264
474 1 0.803449 0.317482 0.746631
440 1 0.931195 0.234202 0.618272
228 1 0.874482 0.290638 0.798395
344 1 0.862373 0.209542 0.635233
259 1 0.872043 0.359259 0.642707
347 1 0.105192 0.416678 0.61668
304 1 0.0929223 0.427193 0.751639
348 1 0.120543 0.549246 0.768447
182 1 0.00452679 0.568746 0.78771
464 1 0.215776 0.511504 0.678292
352 1 0.353693 0.588792 0.7169
472 1 0.342742 0.441335 0.751719
489 1 0.401658 0.500118 0.633281
407 1 0.440184 0.553258 0.798224
374 1 0.468118 0.436181 0.688869
289 1 0.539837 0.536387 0.702624
179 1 0.664211 0.477654 0.617726
393 1 0.692905 0.579919 0.711384
479 1 0.600683 0.434623 0.73356
248 1 0.77256 0.457921 0.715404
341 1 0.734731 0.462748 0.772096
466 1 0.992025 0.45958 0.670749
358 1 0.808714 0.541118 0.639043
90 1 0.811364 0.580845 0.788974
436 1 0.906066 0.534377 0.705869
354 1 0.896876 0.406224 0.754983
342 1 0.0649255 0.61193 0.690517
286 1 0.129482 0.749556 0.660367
484 1 0.0117287 0.749161 0.63864
63 1 0.196069 0.658204 0.731722
295 1 0.0130842 0.770966 0.771276
467 1 0.213686 0.637777 0.620208
268 1 0.340387 0.712158 0.734558
461 1 0.251425 0.750347 0.651151
428 1 0.206218 0.625729 0.799905
491 1 0.435918 0.73433 0.62021
275 1 0.461597 0.611653 0.648388
362 1 0.461562 0.677743 0.769522
69 1 0.545636 0.753324 0.67513
458 1 0.663896 0.756137 0.646444
376 1 0.600116 0.618318 0.614065
66 1 0.661564 0.686866 0.756444
52 1 0.783096 0.667078 0.645007
62 1 0.789861 0.797977 0.696358
281 1 0.943522 0.682244 0.697759
460 1 0.84125 0.683854 0.734921
207 1 0.125353 0.961838 0.689724
162 1 0.137371 0.840084 0.720756
480 1 0.0522808 0.865525 0.61998
205 1 0.00299575 0.923047 0.782144
392 1 0.362102 0.813327 0.619096
386 1 0.240165 0.802896 0.780825
333 1 0.315363 0.865335 0.718569
215 1 0.209096 0.971058 0.751143
387 1 0.446235 0.948064 0.63285
456 1 0.457092 0.834364 0.713558
329 1 0.445672 0.946539 0.782014
494 1 0.556002 0.88682 0.709606
394 1 0.652713 0.8082 0.777822
315 1 0.68142 0.900572 0.683072
361 1 0.910942 0.824443 0.673728
223 1 0.80756 0.904461 0.620362
495 1 0.886877 0.844626 0.764547
203 1 0.944899 0.948872 0.679945
401 1 0.809272 0.950413 0.739353
300 1 0.0629887 0.0168053 0.815796
445 1 0.0205052 0.125205 0.866819
414 1 0.13116 0.116464 0.934905
412 1 0.260475 0.0162823 0.961345
368 1 0.213081 0.0918921 0.811857
23 1 0.297229 0.136177 0.919273
305 1 0.343052 0.0284249 0.864851
112 1 0.342753 0.172383 0.800935
422 1 0.415889 0.1596 0.959365
338 1 0.490193 0.0906392 0.913533
389 1 0.549268 0.0399077 0.80511
320 1 0.774443 0.175938 0.814262
9 1 0.633828 0.0538845 0.898963
37 1 0.741572 0.140381 0.93414
5 1 0.80731 0.0540792 0.834844
216 1 0.894308 0.154842 0.893346
84 1 0.986589 0.11465 0.992716
317 1 0.839849 0.0780944 0.993624
418 1 0.93009 0.00709145 0.878258
325 1 0.135512 0.31356 0.826789
319 1 0.093687 0.207363 0.801689
88 1 0.108806 0.236264 0.946883
405 1 0.0804689 0.374891 0.9384
139 1 0.00175652 0.283201 0.881641
452 1 0.226547 0.287501 0.9806
328 1 0.215368 0.218791 0.860296
118 1 0.348108 0.338084 0.942134
345 1 0.281003 0.313175 0.816382
133 1 0.478062 0.255165 0.979348
486 1 0.53138 0.211365 0.878505
31 1 0.409025 0.254272 0.878615
430 1 0.417923 0.38077 0.837441
340 1 0.517201 0.357254 0.913666
451 1 0.634805 0.209371 0.95799
49 1 0.629368 0.345098 0.935643
8 1 0.688288 0.386408 0.856908
229 1 0.779953 0.272371 0.920353
10 1 0.650618 0.215198 0.816562
439 1 0.883939 0.205652 0.938347
379 1 0.830647 0.388094 0.883476
359 1 0.905115 0.3172 0.955067
11 1 0.174242 0.40689 0.860088
457 1 0.000877221 0.439131 0.841022
244 1 0.0923865 0.503476 0.890557
449 1 0.203832 0.562011 0.927294
280 1 0.235932 0.496307 0.801253
443 1 0.261121 0.415859 0.925612
41 1 0.363455 0.48915 0.906334
331 1 0.583642 0.477684 0.840469
129 1 0.489799 0.498966 0.920903
336 1 0.66539 0.584483 0.858342
442 1 0.604961 0.483017 0.993917
363 1 0.737149 0.487936 0.893706
153 1 0.69631 0.588707 0.983844
22 1 0.80708 0.456283 0.977157
136 1 0.936849 0.41936 0.979458
453 1 0.892727 0.499292 0.865648
194 1 0.990063 0.597939 0.931103
282 1 0.0991761 0.740264 0.825727
144 1 0.0869209 0.635735 0.872359
42 1 0.0938725 0.764757 0.9502
367 1 0.31195 0.613927 0.835018
383 1 0.236882 0.71605 0.957841
73 1 0.312559 0.610611 0.954454
185 1 0.340598 0.708912 0.889141
81 1 0.218176 0.784526 0.849485
72 1 0.580382 0.630988 0.80818
70 1 0.436395 0.630059 0.889725
146 1 0.569842 0.616366 0.936756
455 1 0.470069 0.735288 0.937999
308 1 0.547827 0.760149 0.838058
473 1 0.650414 0.708725 0.936672
377 1 0.756787 0.674092 0.866989
496 1 0.755221 0.798538 0.820921
75 1 0.835182 0.610667 0.903629
378 1 0.969676 0.743196 0.913785
384 1 0.938907 0.665842 0.828856
487 1 0.888611 0.701665 0.98544
17 1 0.862253 0.771923 0.869976
79 1 0.147403 0.874743 0.951136
83 1 0.0875867 0.879296 0.845527
417 1 0.0786176 0.979185 0.958163
499 1 0.17905 0.989523 0.87225
65 1 0.291858 0.837157 0.963623
67 1 0.38509 0.806767 0.819544
482 1 0.302569 0.90532 0.859565
408 1 0.400794 0.932583 0.94274
116 1 0.537182 0.890421 0.977635
388 1 0.488896 0.990645 0.897159
85 1 0.446685 0.849297 0.924766
232 1 0.583507 0.897812 0.844611
226 1 0.716414 0.967371 0.878391
2 1 0.680999 0.949623 0.80838
14 1 0.679297 0.832304 0.92894
12 1 0.806825 0.861615 0.963914
15 1 0.865737 0.970318 0.987931
398 1 0.972836 0.876515 0.918397
27 1 0.841724 0.922163 0.850863
ITEM: TIMESTEP
1000
ITEM: NUMBER OF ATOMS
500
ITEM: BOX BOUNDS pp pp pp
-4.8086270809832854e-04 1.5874491382390101e+01
-4.8086270809832854e-04 1.5874491382390101e+01
-4.8086270809832854e-04 1.5874491382390101e+01
ITEM: ATOMS id type xs ys zs
1 1 0.166814 0.108463 0.0612672
121 1 0.0625936 0.140305 0.150084
498 1 0.175844 0.0368703 0.136317
3 1 0.0512547 0.0576618 0.111597
103 1 0.29711 0.015469 0.0177043
301 1 0.281598 0.128216 0.165748
346 1 0.275613 0.198488 0.028499
403 1 0.412621 0.121942 0.104326
106 1 0.437541 0.00633189 0.0499067
239 1 0.55618 0.164716 0.035712
165 1 0.530468 0.033443 0.081286
190 1 0.455399 0.048522 0.195462
120 1 0.539237 0.149293 0.191771
226 1 0.599001 0.00789486 0.0603997
95 1 0.665168 0.137564 0.132213
311 1 0.703152 0.0252165 0.0690345
37 1 0.762573 0.169749 0.0843481
411 1 0.820803 0.00135542 0.003844
500 1 0.881022 0.105702 0.0867126
97 1 0.936959 0.0242386 0.144233
438 1 0.178168 0.270522 0.119547
171 1 0.136297 0.338527 0.126822
441 1 0.103781 0.312289 0.00814902
18 1 0.0126713 0.255247 0.0878287
293 1 0.0347421 0.399741 0.0596233
39 1 0.321051 0.283061 0.127903
44 1 0.308666 0.337114 0.186919
452 1 0.280937 0.324787 0.0468006
33 1 0.420916 0.238538 0.0590545
140 1 0.467607 0.23707 0.178792
150 1 0.428659 0.383789 0.0941986
233 1 0.542069 0.391244 0.195378
133 1 0.522486 0.290618 0.0691696
16 1 0.796631 0.264528 0.0147068
125 1 0.731011 0.360838 0.164036
435 1 0.746546 0.39023 0.0462606
135 1 0.675785 0.262874 0.0832178
59 1 0.888394 0.256221 0.193694
404 1 0.845944 0.297862 0.149166
54 1 0.906176 0.214875 0.0263974
439 1 0.970186 0.344791 0.102715
161 1 0.00590126 0.400474 0.17582
463 1 0.0387705 0.561644 0.0874909
158 1 0.153935 0.567382 0.193849
48 1 0.0896973 0.459672 0.157391
143 1 0.21649 0.416434 0.00162189
432 1 0.233982 0.465046 0.150884
448 1 0.205845 0.576534 0.0415399
4 1 0.269294 0.441912 0.0311029
60 1 0.369657 0.47385 0.156776
332 1 0.372475 0.540371 0.0356195
130 1 0.54561 0.577795 0.0511995
156 1 0.489964 0.496098 0.0594979
30 1 0.432067 0.589879 0.186786
157 1 0.635462 0.403377 0.0400939
57 1 0.769437 0.588561 0.0969995
260 1 0.645377 0.565356 0.177629
419 1 0.789651 0.464738 0.101334
251 1 0.668558 0.591984 0.0131842
34 1 0.662466 0.467 0.199169
28 1 0.92335 0.53649 0.151757
136 1 0.942759 0.469752 0.0918507
45 1 0.150787 0.69049 0.142676
78 1 0.0294631 0.759377 0.111835
449 1 0.128756 0.695863 0.00139472
61 1 0.274399 0.714648 0.0992827
169 1 0.388206 0.777321 0.0411127
383 1 0.330525 0.629774 0.132311
36 1 0.471813 0.688547 0.0542006
56 1 0.447984 0.674298 0.123392
172 1 0.573781 0.741342 0.193037
257 1 0.569403 0.623476 0.147043
455 1 0.59308 0.730498 0.00960821
492 1 0.68748 0.690122 0.110276
7 1 0.724151 0.769353 0.0301395
149 1 0.987799 0.666878 0.169594
80 1 0.828388 0.662369 0.103087
99 1 0.92556 0.745058 0.196285
487 1 0.937577 0.683266 0.0330266
17 1 0.873446 0.768409 0.0997283
68 1 0.123789 0.846296 0.177252
166 1 0.0969906 0.803728 0.0349429
421 1 0.152075 0.944075 0.111032
477 1 0.0481481 0.879086 0.0716393
398 1 0.0609232 0.98752 0.0279747
468 1 0.29936 0.985972 0.105677
212 1 0.243972 0.861512 0.0414588
29 1 0.363148 0.907358 0.0378571
19 1 0.232819 0.828385 0.18146
429 1 0.484217 0.865452 0.125272
87 1 0.589074 0.837493 0.0842231
173 1 0.477312 0.802371 0.103313
96 1 0.688435 0.889617 0.00800558
296 1 0.718028 0.808782 0.146262
93 1 0.663805 0.983155 0.198526
77 1 0.981501 0.825067 0.0150773
13 1 0.819293 0.858475 0.127518
409 1 0.801519 0.964532 0.104766
181 1 0.942496 0.913182 0.164184
15 1 0.964091 0.978749 0.00883942
193 1 0.0434793 0.145925 0.292454
104 1 0.0501829 0.0788255 0.236928
126 1 0.170902 0.0332607 0.284448
127 1 0.179859 0.147663 0.242552
312 1 0.127959 0.0993378 0.363868
131 1 0.305037 0.133041 0.392838
236 1 0.357735 0.0810201 0.223813
109 1 0.286597 0.0810779 0.277623
284 1 0.567363 0.0729286 0.297311
114 1 0.469116 0.156016 0.308401
396 1 0.46361 0.0960671 0.349634
210 1 0.571906 0.0203541 0.374092
313 1 0.666174 0.11454 0.222377
137 1 0.787449 0.0772816 0.217571
159 1 0.705006 0.189658 0.261338
322 1 0.747496 0.00329992 0.314396
214 1 0.688864 0.128148 0.386158
6 1 0.985551 0.118008 0.398681
98 1 0.922718 0.15887 0.202494
225 1 0.852901 0.154724 0.353865
217 1 0.868001 0.04796 0.350093
152 1 0.0968052 0.385637 0.279688
426 1 0.117949 0.264628 0.237183
142 1 0.0270209 0.348004 0.28243
242 1 0.128622 0.205806 0.37922
471 1 0.245561 0.385023 0.238791
249 1 0.344212 0.233479 0.237342
86 1 0.251517 0.232995 0.352466
32 1 0.248149 0.335438 0.332874
391 1 0.351899 0.264027 0.371948
206 1 0.451738 0.289543 0.295644
483 1 0.506958 0.37554 0.361107
310 1 0.485849 0.275225 0.397282
366 1 0.593973 0.271572 0.248692
100 1 0.787478 0.210796 0.202383
423 1 0.732787 0.333647 0.298181
402 1 0.788059 0.2192 0.348418
490 1 0.601429 0.218443 0.379015
101 1 0.795709 0.316873 0.279372
155 1 0.665061 0.356853 0.313049
141 1 0.941178 0.252551 0.285199
424 1 0.925564 0.277589 0.364369
459 1 0.0640253 0.480061 0.289438
285 1 0.101845 0.53735 0.374072
256 1 0.294171 0.578871 0.224198
250 1 0.387777 0.412729 0.260471
167 1 0.341786 0.535863 0.273419
46 1 0.231778 0.495379 0.293101
71 1 0.42398 0.449287 0.207248
269 1 0.441995 0.520577 0.37228
222 1 0.565348 0.443087 0.261613
258 1 0.53247 0.577706 0.339234
314 1 0.662846 0.485288 0.323471
497 1 0.770616 0.53586 0.262928
195 1 0.88717 0.576997 0.206422
163 1 0.891648 0.418646 0.215227
35 1 0.816056 0.432811 0.3144
145 1 0.939822 0.406386 0.385955
187 1 0.992178 0.576006 0.241581
164 1 0.929378 0.511278 0.342328
199 1 0.0941288 0.727316 0.256007
288 1 0.077063 0.651325 0.318873
117 1 0.200937 0.602818 0.326178
270 1 0.224353 0.700274 0.266539
369 1 0.364663 0.693024 0.261497
265 1 0.341665 0.657211 0.382782
230 1 0.528279 0.790727 0.22598
74 1 0.467595 0.631066 0.281281
92 1 0.466012 0.769099 0.341285
271 1 0.589867 0.69672 0.387778
51 1 0.636933 0.684053 0.298897
76 1 0.719957 0.629495 0.363788
297 1 0.712094 0.664578 0.230356
174 1 0.792224 0.776305 0.326025
262 1 0.804322 0.695113 0.242573
55 1 0.839706 0.625788 0.334021
385 1 0.934524 0.696 0.327527
180 1 0.0577524 0.966758 0.208278
290 1 0.106972 0.900261 0.321652
26 1 0.10623 0.811897 0.362809
82 1 0.3132 0.952971 0.213181
186 1 0.397169 0.823522 0.222689
254 1 0.250563 0.812771 0.339803
196 1 0.2269 0.943174 0.243478
170 1 0.378566 0.868643 0.347983
274 1 0.39245 0.989819 0.3354
278 1 0.323561 0.836584 0.201842
291 1 0.250652 0.914093 0.388897
327 1 0.451411 0.954813 0.236294
25 1 0.474684 0.912836 0.282357
184 1 0.600375 0.881327 0.203653
91 1 0.666296 0.800331 0.301011
213 1 0.761934 0.891954 0.233778
276 1 0.607308 0.906277 0.326745
138 1 0.845601 0.980172 0.230307
119 1 0.981523 0.849341 0.238854
283 1 0.984309 0.828584 0.351993
94 1 0.856468 0.91539 0.295633
105 1 0.97073 0.979288 0.366992
294 1 0.866772 0.82609 0.360115
298 1 0.122797 0.0531105 0.519252
202 1 0.00515972 0.16516 0.575365
372 1 0.0773261 0.174545 0.56582
211 1 0.27067 0.0208986 0.540096
406 1 0.265377 0.151859 0.552963
113 1 0.202963 0.0923145 0.454897
343 1 0.546026 0.132913 0.452054
334 1 0.425088 0.0738297 0.456894
253 1 0.54497 0.0242285 0.540919
326 1 0.402672 0.158714 0.450438
399 1 0.695577 0.014768 0.519316
431 1 0.65713 0.131216 0.536086
279 1 0.744173 0.0430202 0.425772
316 1 0.791943 0.130973 0.484987
108 1 0.912321 0.0559982 0.473362
221 1 0.846551 0.041639 0.540992
123 1 0.0360773 0.237614 0.465969
357 1 0.085212 0.359334 0.50458
309 1 0.165026 0.268905 0.578598
24 1 0.226391 0.202197 0.463363
102 1 0.243973 0.298922 0.495503
476 1 0.365371 0.278284 0.522515
128 1 0.299549 0.386769 0.414664
489 1 0.281286 0.343866 0.574804
124 1 0.59786 0.308741 0.57187
475 1 0.424901 0.383296 0.433707
287 1 0.536447 0.389071 0.472948
337 1 0.471214 0.243415 0.528911
40 1 0.640333 0.367918 0.441848
237 1 0.608459 0.219367 0.487915
241 1 0.745271 0.284914 0.468617
252 1 0.721369 0.321473 0.542783
255 1 0.972699 0.291756 0.513539
299 1 0.826699 0.354704 0.418265
134 1 0.92407 0.207183 0.446927
323 1 0.866361 0.203465 0.561294
111 1 0.1461 0.413147 0.402648
243 1 0.015534 0.42141 0.452375
273 1 0.154523 0.525293 0.527531
264 1 0.0770723 0.549887 0.579459
353 1 0.177535 0.422107 0.57128
132 1 0.314498 0.449769 0.401762
122 1 0.359393 0.588665 0.412396
446 1 0.253503 0.50117 0.459527
481 1 0.302299 0.507639 0.580225
247 1 0.310445 0.594804 0.505492
107 1 0.549809 0.49488 0.438095
189 1 0.413628 0.480921 0.489851
365 1 0.431557 0.55107 0.546368
53 1 0.528132 0.484885 0.57288
234 1 0.677461 0.467556 0.485597
355 1 0.663817 0.482626 0.57825
454 1 0.610207 0.599647 0.501564
154 1 0.673236 0.595922 0.471797
240 1 0.765324 0.504478 0.401203
238 1 0.764217 0.471447 0.57909
38 1 0.853908 0.443436 0.496371
360 1 0.98101 0.533986 0.486755
160 1 0.85513 0.551539 0.430568
266 1 0.879556 0.581994 0.544498
43 1 0.0327446 0.67142 0.454507
201 1 0.197385 0.617198 0.429222
397 1 0.128486 0.716945 0.465671
209 1 0.191717 0.765824 0.455411
115 1 0.0491742 0.725695 0.542965
286 1 0.0883039 0.779805 0.558995
467 1 0.162399 0.689652 0.593427
485 1 0.243119 0.735611 0.539209
183 1 0.347757 0.768416 0.404902
392 1 0.377788 0.7781 0.504969
200 1 0.457478 0.676535 0.448731
390 1 0.44908 0.663558 0.571219
175 1 0.495864 0.734639 0.578456
381 1 0.578388 0.754245 0.506538
218 1 0.733666 0.665162 0.488268
400 1 0.697737 0.778227 0.442852
395 1 0.77713 0.799505 0.452243
458 1 0.761099 0.615049 0.57154
58 1 0.897563 0.789206 0.523393
177 1 0.891118 0.680204 0.445754
191 1 0.170018 0.973784 0.412131
220 1 0.0557832 0.982481 0.444357
321 1 0.154397 0.911721 0.507123
364 1 0.138506 0.922101 0.591175
188 1 0.306517 0.993041 0.43075
306 1 0.280049 0.852021 0.524534
493 1 0.408921 0.935685 0.528722
410 1 0.547904 0.878223 0.566646
371 1 0.454991 0.883414 0.438859
307 1 0.57015 0.973673 0.488728
382 1 0.570959 0.813732 0.413519
219 1 0.7515 0.921095 0.42284
277 1 0.661472 0.90513 0.469505
62 1 0.699116 0.820019 0.575236
315 1 0.69513 0.977101 0.597684
178 1 0.970561 0.819449 0.466509
47 1 0.875711 0.927413 0.44139
480 1 0.973687 0.954548 0.555117
361 1 0.912488 0.916443 0.59579
223 1 0.819555 0.919398 0.562024
303 1 0.124094 0.059548 0.671398
89 1 0.15409 0.190205 0.721168
319 1 0.0429867 0.129403 0.720681
349 1 0.317553 0.165827 0.633974
450 1 0.202321 0.00795802 0.681938
227 1 0.227751 0.164496 0.668452
302 1 0.286464 0.0450611 0.778899
330 1 0.302924 0.180593 0.774267
370 1 0.397524 0.111439 0.607732
318 1 0.591081 0.186118 0.615013
231 1 0.507543 0.0695756 0.657275
413 1 0.452447 0.177019 0.736014
388 1 0.539877 0.0731232 0.792413
420 1 0.623723 0.097071 0.692067
415 1 0.762542 0.071399 0.693412
373 1 0.737719 0.164412 0.771392
20 1 0.673578 0.00845144 0.764648
440 1 0.742976 0.123157 0.602312
10 1 0.606161 0.186622 0.740056
488 1 0.984432 0.0447319 0.619657
437 1 0.84828 0.152285 0.672563
198 1 0.893275 0.0884425 0.73514
148 1 0.101723 0.266901 0.673767
324 1 0.0492801 0.285315 0.759762
351 1 0.193184 0.328997 0.723934
259 1 0.0276803 0.341034 0.603933
348 1 0.0444316 0.394833 0.730995
151 1 0.351838 0.279823 0.69175
447 1 0.301162 0.285798 0.781725
272 1 0.457457 0.37004 0.613266
224 1 0.503896 0.326948 0.707356
433 1 0.471997 0.219484 0.675261
339 1 0.744375 0.235501 0.661664
469 1 0.60376 0.248293 0.706002
350 1 0.642787 0.34876 0.64251
356 1 0.747947 0.26543 0.782169
344 1 0.764973 0.285088 0.614179
267 1 0.945136 0.227139 0.666354
263 1 0.887016 0.391332 0.629637
261 1 0.930157 0.340078 0.791498
246 1 0.884251 0.295806 0.713622
179 1 0.80373 0.393181 0.696514
245 1 0.0826395 0.588141 0.719784
304 1 0.136072 0.416748 0.630252
11 1 0.125696 0.486751 0.733013
347 1 0.211963 0.570566 0.660139
464 1 0.273671 0.421613 0.733381
63 1 0.308107 0.575025 0.774865
275 1 0.365581 0.419971 0.652296
407 1 0.400656 0.495037 0.674208
374 1 0.517037 0.438389 0.731573
289 1 0.511119 0.566736 0.665855
479 1 0.627948 0.48295 0.703473
52 1 0.762496 0.550087 0.665345
8 1 0.694008 0.44137 0.780511
336 1 0.60542 0.592686 0.761662
147 1 0.998169 0.486131 0.667282
182 1 0.991855 0.582864 0.771296
248 1 0.959045 0.461825 0.782497
466 1 0.860644 0.549403 0.711201
358 1 0.927448 0.455471 0.634818
281 1 0.958106 0.567693 0.623498
342 1 0.0555242 0.744317 0.691378
282 1 0.161916 0.747306 0.678185
144 1 0.154223 0.640768 0.710095
352 1 0.337075 0.678974 0.605767
268 1 0.295078 0.681021 0.663935
362 1 0.358763 0.719701 0.782634
491 1 0.417272 0.634728 0.686107
456 1 0.494172 0.743239 0.681766
72 1 0.518888 0.612643 0.744169
292 1 0.61711 0.697176 0.614647
462 1 0.775232 0.759675 0.621152
393 1 0.624652 0.60559 0.618437
341 1 0.729985 0.606583 0.771077
69 1 0.611643 0.737722 0.746429
66 1 0.734651 0.732385 0.697319
176 1 0.968373 0.685709 0.618544
436 1 0.853424 0.65496 0.670095
460 1 0.887994 0.798388 0.68108
42 1 0.97952 0.732535 0.775019
384 1 0.928852 0.687166 0.764594
192 1 0.184186 0.838236 0.657653
484 1 0.00528925 0.857084 0.615521
207 1 0.0520062 0.947642 0.718951
162 1 0.11462 0.83975 0.798746
208 1 0.343893 0.992956 0.650436
461 1 0.384014 0.802673 0.651316
386 1 0.254886 0.924613 0.754874
333 1 0.323413 0.908244 0.616646
329 1 0.346534 0.818356 0.769578
470 1 0.580494 0.853041 0.711327
416 1 0.42261 0.987953 0.704477
335 1 0.584151 0.985144 0.686327
387 1 0.469495 0.905652 0.622662
494 1 0.49049 0.908961 0.79496
376 1 0.601019 0.832762 0.649449
401 1 0.705191 0.903199 0.677172
295 1 0.975835 0.859501 0.782378