ITEM: TIMESTEP
0
ITEM: NUMBER OF ATOMS
500
ITEM: BOX BOUNDS pp pp pp
0.0000000000000000e+00 1.5874010519681994e+01
0.0000000000000000e+00 1.5874010519681994e+01
0.0000000000000000e+00 1.5874010519681994e+01
ITEM: ATOMS id type xs ys zs
103 1 0.159206 0.098716 0.135023
7 1 0.0783981 0.050126 0.0233237
47 1 0.017993 0.0960689 0.131767
121 1 0.0799251 0.175686 0.0371906
109 1 0.294615 0.0428062 0.143157
230 1 0.318305 0.178606 0.0946265
246 1 0.206578 0.191001 0.179925
492 1 0.230233 0.0915688 0.0170362
130 1 0.411967 0.0663135 0.0828593
131 1 0.515984 0.136979 0.0739033
116 1 0.595709 0.124399 0.18188
186 1 0.401982 0.185184 0.168505
113 1 0.563183 0.014045 0.106941
39 1 0.688786 0.0233426 0.170201
135 1 0.674411 0.118869 0.0454996
234 1 0.731312 0.15019 0.169165
104 1 0.816355 0.0534476 0.111227
157 1 0.85915 0.15924 0.0363859
2 1 0.962032 0.06627 0.0609039
57 1 0.880704 0.173408 0.150796
128 1 0.100528 0.264508 0.141913
48 1 0.00069475 0.375375 0.0703538
143 1 0.00418833 0.218165 0.181139
28 1 0.148764 0.37321 0.061753
241 1 0.0541597 0.360531 0.192651
105 1 0.20162 0.235361 0.0333539
44 1 0.266353 0.314301 0.154337
32 1 0.328958 0.299847 0.0392505
46 1 0.460768 0.279684 0.0877137
452 1 0.593512 0.354204 0.020833
191 1 0.554413 0.371455 0.150609
132 1 0.522059 0.25503 0.193038
155 1 0.760759 0.219451 0.0595614
53 1 0.608599 0.244945 0.0781978
153 1 0.731279 0.346097 0.0709961
175 1 0.796707 0.292196 0.170381
79 1 0.667081 0.391986 0.184202
141 1 0.987927 0.228571 0.069171
51 1 0.862699 0.317157 0.0423635
142 1 0.925427 0.342726 0.16404
43 1 0.0720703 0.472533 0.111885
42 1 0.183928 0.539589 0.142251
41 1 0.10399 0.588053 0.0522848
465 1 0.193462 0.506989 0.00153972
146 1 0.281938 0.447355 0.0831472
49 1 0.346951 0.568098 0.140996
251 1 0.362786 0.42024 0.180699
54 1 0.370635 0.502494 0.0409605
56 1 0.425898 0.405072 0.0865837
73 1 0.560586 0.491493 0.096898
69 1 0.489199 0.588797 0.0324835
77 1 0.472902 0.518944 0.161084
456 1 0.652129 0.49746 0.0191432
474 1 0.699741 0.510438 0.138345
55 1 0.766567 0.461728 0.00155264
158 1 0.827694 0.438036 0.134422
459 1 0.823386 0.545816 0.0934829
144 1 0.929776 0.486705 0.15994
424 1 0.910471 0.457556 0.0285436
80 1 0.973405 0.598377 0.136161
178 1 0.08134 0.622594 0.197258
61 1 0.0271064 0.702678 0.103361
488 1 0.149982 0.702514 0.0795275
62 1 0.245733 0.622358 0.0860836
471 1 0.267978 0.76046 0.100849
72 1 0.384644 0.710442 0.110462
68 1 0.359995 0.644654 0.0119616
74 1 0.568101 0.629825 0.170689
396 1 0.509756 0.695534 0.0931926
495 1 0.502288 0.778663 0.164438
475 1 0.592991 0.783046 0.0546589
78 1 0.774328 0.685134 0.0783988
75 1 0.669575 0.723907 0.16079
469 1 0.666441 0.620917 0.0747835
197 1 0.901783 0.721024 0.156394
59 1 0.851241 0.629124 0.191994
82 1 0.937975 0.663737 0.00656475
419 1 0.991133 0.790084 0.0109124
497 1 0.860846 0.755844 0.0399446
159 1 0.0822178 0.982247 0.126674
99 1 0.110835 0.820687 0.145804
201 1 0.00533906 0.940821 0.00658015
3 1 0.142711 0.900847 0.0111684
88 1 0.200193 0.964118 0.106912
5 1 0.235413 0.841699 0.0762494
129 1 0.342747 0.924137 0.0926084
87 1 0.39551 0.832885 0.179545
470 1 0.441993 0.837729 0.0459408
91 1 0.456253 0.947564 0.165587
95 1 0.559341 0.887819 0.0488329
190 1 0.55319 0.87221 0.193725
89 1 0.448813 0.961684 0.0101618
96 1 0.731172 0.808764 0.0234722
98 1 0.767636 0.811174 0.148525
31 1 0.672769 0.968349 0.00665402
14 1 0.767714 0.943213 0.0651799
200 1 0.662574 0.897774 0.158234
124 1 0.936652 0.979049 0.121168
194 1 0.863751 0.889166 0.0792015
20 1 0.985723 0.851005 0.138232
221 1 0.106537 0.156514 0.253672
208 1 0.137753 0.0700587 0.359648
123 1 0.0730424 0.025579 0.233711
223 1 0.0847584 0.191188 0.384568
12 1 0.361613 0.0838005 0.238556
205 1 0.203211 0.05614 0.250221
102 1 0.226867 0.175624 0.332702
247 1 0.39844 0.166783 0.308788
106 1 0.294731 0.0541251 0.354702
107 1 0.476208 0.0600922 0.212178
286 1 0.444961 0.0168201 0.321102
110 1 0.508388 0.133511 0.286837
111 1 0.597063 0.0847586 0.392922
493 1 0.655825 0.0952571 0.280767
210 1 0.701591 0.162755 0.392402
115 1 0.770664 0.0447649 0.362438
137 1 0.82585 0.0339317 0.24361
217 1 0.815944 0.127234 0.277721
202 1 0.990185 0.136906 0.328139
117 1 0.911899 0.00734053 0.377298
139 1 0.943314 0.0753867 0.234235
245 1 0.148316 0.291802 0.265473
207 1 0.01094 0.300596 0.30245
127 1 0.181042 0.284167 0.377456
228 1 0.0739778 0.389088 0.36301
166 1 0.380625 0.285222 0.206436
222 1 0.275948 0.225764 0.259019
266 1 0.286718 0.362671 0.299703
226 1 0.317684 0.282535 0.390614
326 1 0.444174 0.283553 0.336174
231 1 0.566575 0.208303 0.36297
160 1 0.574553 0.353336 0.291868
455 1 0.667111 0.264529 0.201387
232 1 0.642874 0.238157 0.25935
258 1 0.787434 0.26531 0.298974
337 1 0.910999 0.230685 0.264085
255 1 0.867124 0.359333 0.375771
179 1 0.813052 0.384279 0.264422
320 1 0.913963 0.246274 0.396701
172 1 0.176925 0.408548 0.202905
145 1 0.0379396 0.48853 0.244997
63 1 0.0342101 0.569422 0.344112
149 1 0.198148 0.428911 0.32564
67 1 0.155896 0.544327 0.279898
65 1 0.286822 0.475304 0.249577
151 1 0.386939 0.545486 0.285744
265 1 0.293037 0.483007 0.372601
229 1 0.474043 0.40309 0.226119
133 1 0.413278 0.404528 0.365863
154 1 0.516678 0.473743 0.324038
50 1 0.687764 0.407799 0.306525
60 1 0.779488 0.516793 0.246809
233 1 0.600785 0.502347 0.218995
76 1 0.672589 0.529655 0.320517
257 1 0.788439 0.488916 0.362029
164 1 0.932141 0.414568 0.275846
278 1 0.90716 0.528878 0.286497
279 1 0.959978 0.434744 0.395607
187 1 0.185584 0.711135 0.212324
83 1 0.0111261 0.771573 0.240822
19 1 0.143364 0.66243 0.347702
188 1 0.10988 0.784298 0.299947
476 1 0.247278 0.609115 0.224967
70 1 0.267316 0.628297 0.345683
165 1 0.216199 0.761833 0.29518
84 1 0.33192 0.71818 0.216503
167 1 0.36058 0.783455 0.328663
177 1 0.445479 0.650119 0.202394
171 1 0.400088 0.668888 0.341265
147 1 0.533464 0.601699 0.307875
185 1 0.465379 0.791413 0.270572
71 1 0.541893 0.71554 0.372934
296 1 0.584922 0.74315 0.249462
11 1 0.708046 0.611802 0.21199
156 1 0.779663 0.724615 0.254417
193 1 0.659824 0.669369 0.345229
294 1 0.768452 0.724218 0.389465
182 1 0.66283 0.799165 0.350032
180 1 0.806413 0.61152 0.353293
161 1 0.988379 0.641983 0.271984
261 1 0.880633 0.699214 0.290582
108 1 0.199806 0.955754 0.374959
239 1 0.0204556 0.988256 0.344382
101 1 0.0451726 0.893991 0.246812
184 1 0.166471 0.925861 0.243465
219 1 0.082431 0.893597 0.366529
487 1 0.259391 0.856585 0.209891
85 1 0.241531 0.856104 0.361882
86 1 0.32017 0.962711 0.228428
290 1 0.345386 0.914261 0.394812
92 1 0.424281 0.910047 0.303558
192 1 0.583154 0.993808 0.272857
170 1 0.561003 0.885874 0.323395
97 1 0.703801 0.960491 0.284044
389 1 0.706149 0.82032 0.272021
211 1 0.647303 0.929149 0.384941
298 1 0.815393 0.91832 0.345647
196 1 0.807138 0.916998 0.207125
199 1 0.971073 0.838344 0.352405
118 1 0.929451 0.943076 0.250964
297 1 0.890752 0.833313 0.210625
198 1 0.837789 0.824737 0.335416
304 1 0.0213341 0.031622 0.468712
282 1 0.102917 0.149443 0.520046
218 1 0.187926 0.0778206 0.469966
399 1 0.0106456 0.117627 0.592729
206 1 0.322104 0.144458 0.409157
249 1 0.342983 0.144894 0.530782
387 1 0.215718 0.166607 0.589784
119 1 0.213794 0.196318 0.466097
183 1 0.289924 0.0300178 0.507619
309 1 0.428581 0.0953493 0.415528
212 1 0.521548 0.133035 0.470224
406 1 0.469626 0.066074 0.554393
334 1 0.60244 0.0388698 0.537859
214 1 0.703096 0.108501 0.493803
240 1 0.770348 0.0551839 0.590634
439 1 0.734151 0.197268 0.596707
339 1 0.967227 0.133832 0.446336
318 1 0.849265 0.113854 0.419661
301 1 0.886104 0.0231145 0.518899
417 1 0.857421 0.164051 0.525117
225 1 0.142743 0.281702 0.521157
321 1 0.0368581 0.282118 0.447343
303 1 0.0594532 0.38438 0.579929
306 1 0.310254 0.268322 0.53976
345 1 0.239364 0.383445 0.458791
203 1 0.293086 0.385235 0.579398
112 1 0.438442 0.218736 0.459705
329 1 0.406433 0.346791 0.481952
152 1 0.537618 0.326521 0.429949
332 1 0.516132 0.266197 0.55634
150 1 0.5807 0.397389 0.560271
254 1 0.654974 0.296524 0.402106
237 1 0.78767 0.230997 0.416729
235 1 0.617533 0.218907 0.526093
173 1 0.686788 0.32363 0.543716
238 1 0.766454 0.382646 0.45392
437 1 0.972531 0.259475 0.566827
224 1 0.938771 0.380182 0.485473
458 1 0.817926 0.287163 0.533961
243 1 0.154028 0.404141 0.471866
148 1 0.167954 0.53346 0.401447
204 1 0.0455028 0.488579 0.48456
324 1 0.0594249 0.57002 0.584488
250 1 0.369807 0.462576 0.486806
344 1 0.241796 0.519125 0.506815
248 1 0.324687 0.518105 0.598105
169 1 0.433735 0.564522 0.407503
327 1 0.455366 0.444257 0.574727
330 1 0.498034 0.445145 0.450548
253 1 0.583075 0.565834 0.425685
176 1 0.577484 0.516082 0.543442
189 1 0.443085 0.568793 0.537831
52 1 0.634807 0.440514 0.414454
259 1 0.702104 0.476102 0.523056
195 1 0.702341 0.580758 0.445777
277 1 0.798949 0.552563 0.599494
402 1 0.950296 0.426286 0.597356
379 1 0.819691 0.492832 0.485269
295 1 0.939649 0.561842 0.578781
358 1 0.922371 0.540042 0.420454
338 1 0.80018 0.425568 0.584812
163 1 0.176586 0.674776 0.459865
341 1 0.168761 0.747347 0.590131
262 1 0.0605532 0.630771 0.470739
264 1 0.00711366 0.738824 0.527134
162 1 0.0529875 0.75591 0.41344
447 1 0.201871 0.614409 0.572882
273 1 0.326615 0.608609 0.455781
263 1 0.284656 0.763127 0.415047
365 1 0.305777 0.689419 0.536484
269 1 0.40252 0.724001 0.455661
393 1 0.499978 0.681908 0.471434
293 1 0.572651 0.647319 0.55402
215 1 0.536643 0.779218 0.567111
317 1 0.681104 0.716688 0.471444
398 1 0.678739 0.659853 0.569625
433 1 0.672127 0.795702 0.589963
284 1 0.934461 0.694321 0.402285
299 1 0.890388 0.787821 0.467213
174 1 0.814952 0.644238 0.485169
280 1 0.803363 0.699223 0.586847
478 1 0.913777 0.639512 0.547299
381 1 0.80528 0.797124 0.543022
242 1 0.158936 0.806203 0.463154
168 1 0.12376 0.977964 0.491504
384 1 0.144866 0.902467 0.588431
382 1 0.0671479 0.852621 0.532953
482 1 0.00818835 0.993612 0.58706
268 1 0.235595 0.926695 0.479513
289 1 0.328701 0.833195 0.52319
386 1 0.392056 0.982737 0.462013
285 1 0.462294 0.848236 0.431699
390 1 0.522888 0.978861 0.427138
370 1 0.460592 0.8813 0.520283
394 1 0.599824 0.805127 0.456715
316 1 0.604968 0.901999 0.520733
216 1 0.712134 0.984837 0.472036
300 1 0.73118 0.852454 0.466165
120 1 0.961478 0.907205 0.462694
220 1 0.827488 0.927023 0.486943
281 1 0.935204 0.860185 0.581355
292 1 0.190715 0.0165462 0.609597
288 1 0.11162 0.130317 0.656576
385 1 0.183873 0.0244842 0.731449
403 1 0.151433 0.133674 0.797071
404 1 0.0280467 0.101832 0.765466
411 1 0.300477 0.102965 0.717068
287 1 0.309865 0.0850416 0.63114
311 1 0.408788 0.184482 0.613802
336 1 0.58188 0.155244 0.611442
314 1 0.459201 0.0910332 0.689432
429 1 0.562428 0.170212 0.711674
25 1 0.424962 0.189702 0.729821
430 1 0.542333 0.0123264 0.691134
313 1 0.670932 0.0820931 0.647896
35 1 0.636856 0.072523 0.768334
414 1 0.772289 0.0299295 0.716494
15 1 0.836314 0.147324 0.676221
319 1 0.899933 0.0495642 0.639603
17 1 0.909533 0.0304139 0.780919
307 1 0.17858 0.224278 0.713861
408 1 0.0557454 0.262118 0.752865
405 1 0.0850273 0.253479 0.624471
312 1 0.118754 0.36911 0.740497
209 1 0.283708 0.231148 0.663099
227 1 0.203825 0.333857 0.614302
351 1 0.358292 0.327038 0.727727
331 1 0.237949 0.352366 0.745901
305 1 0.410521 0.330372 0.611583
409 1 0.500302 0.283216 0.701873
354 1 0.599239 0.317123 0.766753
256 1 0.51866 0.388709 0.682498
310 1 0.694529 0.202196 0.74323
340 1 0.617834 0.292842 0.647571
438 1 0.757519 0.28683 0.685413
425 1 0.971232 0.205434 0.674056
302 1 0.981282 0.329358 0.684287
423 1 0.839095 0.203193 0.636666
418 1 0.876079 0.352165 0.637852
21 1 0.841177 0.28055 0.771149
443 1 0.81222 0.388984 0.739521
244 1 0.174452 0.462931 0.610838
457 1 0.0550553 0.476365 0.676432
346 1 0.188199 0.570589 0.685052
442 1 0.102521 0.592194 0.762175
427 1 0.386976 0.463661 0.707706
323 1 0.256125 0.475481 0.704223
349 1 0.331241 0.590626 0.771376
270 1 0.500655 0.521172 0.655374
274 1 0.468645 0.567715 0.787095
449 1 0.565796 0.470749 0.764105
236 1 0.675316 0.419333 0.65416
357 1 0.6551 0.550821 0.633998
360 1 0.750427 0.486418 0.726111
276 1 0.661633 0.532232 0.796229
359 1 0.892467 0.493267 0.683881
422 1 0.985329 0.597976 0.716495
328 1 0.99909 0.418234 0.779075
461 1 0.0578748 0.68191 0.618089
181 1 0.137921 0.724152 0.713444
362 1 0.000992792 0.728768 0.74095
383 1 0.258675 0.790821 0.64498
363 1 0.26252 0.661657 0.667598
347 1 0.350306 0.730998 0.717595
483 1 0.251112 0.780148 0.78002
291 1 0.375332 0.609458 0.648434
267 1 0.408497 0.768848 0.603603
353 1 0.573238 0.616445 0.713942
271 1 0.470193 0.667674 0.64416
350 1 0.497837 0.752751 0.74978
374 1 0.72573 0.620236 0.703966
395 1 0.621428 0.725906 0.718623
378 1 0.756555 0.740631 0.669496
377 1 0.863349 0.606416 0.694113
260 1 0.926897 0.731716 0.632984
463 1 0.856144 0.70191 0.76976
283 1 0.050953 0.86104 0.773492
342 1 0.0694251 0.997875 0.678525
368 1 0.188828 0.870265 0.713528
361 1 0.0384378 0.813745 0.663433
366 1 0.306645 0.917726 0.600525
489 1 0.359937 0.847476 0.736085
369 1 0.388323 0.99324 0.623855
468 1 0.285535 0.955531 0.736005
392 1 0.402829 0.982002 0.753007
252 1 0.537749 0.958702 0.601936
372 1 0.445702 0.88686 0.638692
413 1 0.571368 0.841494 0.683101
93 1 0.47009 0.864843 0.785922
410 1 0.64382 0.955791 0.697557
213 1 0.722659 0.934167 0.604644
333 1 0.726122 0.855257 0.702987
400 1 0.855221 0.806631 0.688792
272 1 0.954235 0.928569 0.711036
388 1 0.851895 0.926401 0.62891
364 1 0.921299 0.825442 0.793046
18 1 0.81133 0.935005 0.775653
4 1 0.123925 0.0241218 0.910143
6 1 0.149736 0.145965 0.939746
8 1 0.0396444 0.190405 0.85885
412 1 0.326439 0.192402 0.962884
26 1 0.261274 0.177353 0.902986
431 1 0.381347 0.0929393 0.831212
401 1 0.240338 0.055566 0.846166
10 1 0.334087 0.0548953 0.985089
136 1 0.419788 0.197655 0.980674
134 1 0.57084 0.0125077 0.976989
36 1 0.44909 0.0623425 0.928461
33 1 0.520282 0.07089 0.824342
30 1 0.558744 0.152373 0.95182
140 1 0.759184 0.0617143 0.995447
416 1 0.786359 0.141823 0.824958
34 1 0.679847 0.132461 0.89765
94 1 0.770215 0.020884 0.880415
420 1 0.978829 0.0587814 0.918509
24 1 0.968388 0.181663 0.964983
421 1 0.931542 0.180081 0.815419
37 1 0.871171 0.0982929 0.913477
22 1 0.0631911 0.297917 0.95909
122 1 0.102683 0.367388 0.856426
348 1 0.168158 0.269594 0.842995
308 1 0.295105 0.219337 0.809927
126 1 0.217892 0.316003 0.947935
125 1 0.333859 0.318114 0.884184
436 1 0.557358 0.206127 0.835949
29 1 0.437394 0.225618 0.861432
432 1 0.475719 0.323426 0.94688
355 1 0.459515 0.350617 0.825702
453 1 0.584097 0.314137 0.895636
138 1 0.795794 0.201971 0.929512
434 1 0.69723 0.372425 0.810968
435 1 0.727306 0.275052 0.854812
40 1 0.659415 0.237825 0.982115
440 1 0.789231 0.350868 0.941748
451 1 0.678981 0.388273 0.950524
428 1 0.960038 0.307663 0.822747
23 1 0.900503 0.266008 0.914743
441 1 0.981694 0.394235 0.938014
322 1 0.12036 0.479503 0.800557
445 1 0.102269 0.442436 0.967261
448 1 0.107817 0.571389 0.912771
325 1 0.222511 0.519038 0.825112
27 1 0.217387 0.408606 0.905086
472 1 0.333859 0.425759 0.811968
45 1 0.33803 0.409733 0.942745
467 1 0.304909 0.549808 0.910868
450 1 0.447894 0.480157 0.890917
275 1 0.563701 0.559408 0.916349
373 1 0.503026 0.434375 0.986562
460 1 0.586257 0.431523 0.872012
391 1 0.692696 0.567792 0.938044
454 1 0.742556 0.468061 0.855169
38 1 0.999083 0.546548 0.995428
356 1 0.902476 0.532444 0.813569
479 1 0.867851 0.430026 0.870247
64 1 0.989892 0.505602 0.880458
473 1 0.8678 0.535916 0.939943
499 1 0.800846 0.578608 0.827586
444 1 0.0105274 0.64063 0.841102
462 1 0.0703476 0.674629 0.957659
481 1 0.124014 0.754305 0.843702
58 1 0.105347 0.783859 0.992301
343 1 0.212883 0.654249 0.807695
426 1 0.31559 0.675857 0.875363
367 1 0.213536 0.644029 0.956712
466 1 0.28846 0.742554 0.988171
66 1 0.452655 0.717576 0.971335
352 1 0.598289 0.659428 0.980197
446 1 0.426751 0.715642 0.831201
375 1 0.566632 0.653739 0.806829
371 1 0.433574 0.605523 0.920254
477 1 0.557513 0.737045 0.888673
315 1 0.703915 0.665095 0.825543
494 1 0.679376 0.713416 0.954868
376 1 0.790267 0.626925 0.975826
380 1 0.788974 0.744388 0.90753
100 1 0.996281 0.771553 0.88214
464 1 0.89331 0.689816 0.891203
1 1 0.0602108 0.98896 0.820352
486 1 0.178127 0.911267 0.837989
498 1 0.0707583 0.872917 0.915564
490 1 0.355419 0.811086 0.863693
81 1 0.220178 0.806188 0.912721
407 1 0.336012 0.86339 0.968959
484 1 0.244055 0.966102 0.988612
491 1 0.269435 0.922757 0.858955
9 1 0.397625 0.95388 0.883142
13 1 0.531596 0.94674 0.841445
90 1 0.486533 0.862411 0.923603
397 1 0.632906 0.812005 0.812115
16 1 0.660838 0.993461 0.865851
496 1 0.655925 0.928284 0.81018
415 1 0.623254 0.848468 0.942364
480 1 0.757306 0.881179 0.908849
335 1 0.761803 0.80813 0.812696
485 1 0.940207 0.924295 0.873757
500 1 0.8747 0.838101 0.930704
114 1 0.867236 0.975335 0.976973
ITEM: TIMESTEP
1000
ITEM: NUMBER OF ATOMS
500
ITEM: BOX BOUNDS pp pp pp
-6.3813420488401107e-04 1.5874648653886812e+01
-6.3813420488401107e-04 1.5874648653886812e+01
-6.3813420488401107e-04 1.5874648653886812e+01
ITEM: ATOMS id type xs ys zs
7 1 0.120123 0.0261573 0.0931298
121 1 0.120188 0.194061 0.0818177
246 1 0.185916 0.0965659 0.160173
2 1 0.0546896 0.0658657 0.142832
109 1 0.270278 0.0671086 0.061872
230 1 0.31352 0.157213 0.145501
492 1 0.215646 0.171059 0.0197525
131 1 0.499423 0.149049 0.100709
186 1 0.417701 0.0448601 0.0640724
166 1 0.410276 0.1749 0.0138195
39 1 0.742219 0.0170833 0.134219
135 1 0.608573 0.115657 0.103458
234 1 0.744049 0.153651 0.107787
140 1 0.733102 0.106751 0.000957687
104 1 0.870869 0.01003 0.157105
57 1 0.932494 0.119761 0.0753271
175 1 0.864865 0.199849 0.182762
141 1 0.99877 0.198475 0.094007
114 1 0.856133 0.0772174 0.0178123
47 1 0.05552 0.217468 0.194983
128 1 0.114226 0.311677 0.155209
28 1 0.0658907 0.335177 0.0253554
142 1 0.00182195 0.350487 0.186786
105 1 0.231574 0.276896 0.124839
32 1 0.284219 0.369869 0.0477246
266 1 0.340779 0.289225 0.120986
412 1 0.298521 0.268236 0.0164346
132 1 0.551474 0.257172 0.131723
56 1 0.462935 0.325847 0.0584681
326 1 0.485671 0.261334 0.196064
40 1 0.567722 0.238715 0.0238782
452 1 0.625511 0.332658 0.0482847
191 1 0.635069 0.37694 0.181226
155 1 0.692808 0.219767 0.00908825
53 1 0.672162 0.215256 0.195654
455 1 0.751655 0.289167 0.128283
157 1 0.857721 0.23803 0.054395
51 1 0.955314 0.34343 0.122359
43 1 0.015862 0.427034 0.0724775
146 1 0.154883 0.426255 0.0921792
178 1 0.0624329 0.522081 0.157525
465 1 0.202066 0.583498 0.0941713
49 1 0.320773 0.516067 0.102381
251 1 0.351966 0.416775 0.124678
62 1 0.346809 0.569656 0.141328
467 1 0.33427 0.496638 0.00595928
54 1 0.438448 0.439137 0.0122646
73 1 0.543011 0.401281 0.0894192
151 1 0.482743 0.535689 0.118604
79 1 0.672259 0.423193 0.110352
474 1 0.705177 0.533444 0.0512937
74 1 0.619105 0.54249 0.161467
469 1 0.611079 0.563226 0.00175719
158 1 0.811628 0.416727 0.0677613
459 1 0.830208 0.598739 0.105747
144 1 0.829207 0.42744 0.137036
424 1 0.893204 0.500034 0.0828521
82 1 0.944486 0.599845 0.0222182
41 1 0.0823342 0.607163 0.0590099
488 1 0.176201 0.717368 0.166787
187 1 0.0575464 0.730582 0.194212
58 1 0.0945202 0.731286 0.0578438
471 1 0.339729 0.749452 0.139587
68 1 0.319007 0.663066 0.0401815
466 1 0.392629 0.728031 0.0267539
69 1 0.412713 0.602318 0.0318865
77 1 0.447244 0.662549 0.154724
72 1 0.490856 0.735851 0.140197
396 1 0.58156 0.611332 0.083758
475 1 0.577152 0.770892 0.0550658
352 1 0.51615 0.671553 0.012197
78 1 0.692377 0.711386 0.0898229
11 1 0.755377 0.63431 0.158527
389 1 0.629981 0.688325 0.195189
80 1 0.984053 0.63631 0.169499
61 1 0.988811 0.76904 0.00602216
197 1 0.870598 0.697858 0.0859645
98 1 0.807324 0.774086 0.131441
83 1 0.968861 0.753178 0.121789
159 1 0.0659129 0.858838 0.0849715
99 1 0.169388 0.86809 0.184469
3 1 0.153486 0.877884 0.0320345
88 1 0.211933 0.952488 0.13003
5 1 0.246202 0.809371 0.100172
129 1 0.347128 0.957393 0.153066
407 1 0.329901 0.888827 0.044297
484 1 0.255663 0.957597 0.0104912
113 1 0.518689 0.969327 0.0677326
495 1 0.561718 0.808598 0.162999
87 1 0.474076 0.931833 0.188156
470 1 0.410209 0.823093 0.124774
75 1 0.697776 0.842385 0.163705
96 1 0.68161 0.866398 0.0371588
31 1 0.660991 0.976114 0.0448377
14 1 0.771082 0.962185 0.00137986
200 1 0.628917 0.933755 0.161435
201 1 0.994669 0.975527 0.0410253
124 1 0.930863 0.96406 0.117441
194 1 0.915841 0.860848 0.0794345
196 1 0.805384 0.903672 0.127105
208 1 0.0963255 0.0876998 0.278792
123 1 0.0156819 0.0167104 0.242191
207 1 0.00878924 0.193463 0.387613
184 1 0.196466 0.00404805 0.256141
304 1 0.167583 0.031832 0.373873
12 1 0.344459 0.0778344 0.352531
205 1 0.279002 0.0539671 0.222526
102 1 0.20703 0.117739 0.31332
247 1 0.369859 0.192197 0.336606
245 1 0.241653 0.168165 0.23078
222 1 0.375158 0.181526 0.245683
116 1 0.550662 0.0491698 0.202887
91 1 0.420756 0.0915941 0.217583
107 1 0.532375 0.174058 0.261426
286 1 0.472378 0.149301 0.398094
111 1 0.569882 0.0527424 0.387609
110 1 0.664008 0.187516 0.304128
493 1 0.722577 0.0717353 0.279118
210 1 0.709124 0.161571 0.362461
192 1 0.624557 0.0412216 0.302124
202 1 0.956553 0.153377 0.226727
117 1 0.989187 0.0788079 0.364445
139 1 0.853736 0.10942 0.252971
118 1 0.904129 0.00265663 0.277857
318 1 0.826256 0.081374 0.378224
241 1 0.0321909 0.326098 0.315416
221 1 0.127335 0.22678 0.281935
127 1 0.128262 0.335063 0.393647
149 1 0.178689 0.394492 0.261743
44 1 0.242862 0.315312 0.23209
226 1 0.289966 0.311094 0.327454
119 1 0.214087 0.227883 0.363392
329 1 0.3227 0.377502 0.369079
231 1 0.541614 0.248762 0.368788
232 1 0.590049 0.306594 0.284085
229 1 0.42155 0.368613 0.214951
152 1 0.422733 0.319366 0.326285
258 1 0.723813 0.326632 0.26267
254 1 0.672564 0.313298 0.379827
143 1 0.932878 0.266716 0.257301
217 1 0.815673 0.232704 0.310653
337 1 0.811773 0.338036 0.201518
179 1 0.82182 0.375245 0.31434
164 1 0.898831 0.305622 0.373317
42 1 0.159817 0.598501 0.202644
228 1 0.0918852 0.480221 0.324434
172 1 0.102397 0.447882 0.218787
63 1 0.0390984 0.545723 0.29744
67 1 0.25438 0.570567 0.313983
65 1 0.247179 0.468679 0.203133
265 1 0.252894 0.477001 0.39205
133 1 0.3749 0.469045 0.262612
476 1 0.356112 0.589554 0.249312
160 1 0.549339 0.410643 0.338965
154 1 0.538965 0.540783 0.264618
233 1 0.551647 0.478931 0.248904
169 1 0.431307 0.506774 0.367789
50 1 0.662222 0.449744 0.339553
60 1 0.777421 0.50291 0.217243
76 1 0.685923 0.544294 0.297627
59 1 0.9047 0.565581 0.200623
145 1 0.933107 0.453635 0.24781
257 1 0.850628 0.484016 0.38516
278 1 0.862604 0.543494 0.31838
279 1 0.983212 0.451666 0.392469
19 1 0.105879 0.640918 0.335801
188 1 0.0702641 0.783528 0.236635
84 1 0.169556 0.69618 0.292324
162 1 0.0528379 0.756742 0.370886
167 1 0.298832 0.747694 0.383063
177 1 0.288167 0.696562 0.252113
171 1 0.362378 0.625055 0.370466
147 1 0.454115 0.647718 0.293558
185 1 0.425825 0.7367 0.253102
71 1 0.47547 0.762802 0.336865
296 1 0.570908 0.639947 0.228951
170 1 0.579623 0.776237 0.319453
253 1 0.587718 0.645697 0.368315
156 1 0.764839 0.778033 0.250023
193 1 0.71198 0.687314 0.321262
182 1 0.716443 0.720031 0.392797
180 1 0.764274 0.664448 0.273954
161 1 0.968951 0.607051 0.291459
261 1 0.866064 0.696238 0.272527
199 1 0.913084 0.794632 0.384572
284 1 0.938056 0.624921 0.396798
103 1 0.0721244 0.934556 0.230165
219 1 0.185572 0.886832 0.290255
85 1 0.188206 0.805959 0.309106
120 1 0.11881 0.928775 0.38331
487 1 0.294772 0.882816 0.26439
86 1 0.31466 0.944269 0.297492
285 1 0.378417 0.837025 0.30705
190 1 0.528012 0.889232 0.268572
92 1 0.445636 0.989773 0.325631
390 1 0.50136 0.878071 0.39463
137 1 0.790661 0.971967 0.287361
97 1 0.673805 0.930588 0.286018
198 1 0.789678 0.826484 0.32481
300 1 0.636504 0.82222 0.275801
239 1 0.976846 0.905138 0.323655
101 1 0.984323 0.870384 0.216173
297 1 0.889223 0.844331 0.212133
223 1 0.11361 0.144947 0.404719
282 1 0.0761276 0.115221 0.545599
106 1 0.347939 0.00173223 0.441779
218 1 0.219986 0.131149 0.493936
206 1 0.317875 0.154608 0.426482
249 1 0.30844 0.121673 0.578623
168 1 0.203673 0.0240384 0.538246
309 1 0.414138 0.11954 0.479782
212 1 0.526492 0.130577 0.540904
406 1 0.409772 0.0213086 0.593893
334 1 0.576714 0.00129734 0.518391
115 1 0.691071 0.0299764 0.406817
214 1 0.780504 0.183622 0.484888
439 1 0.64645 0.0924803 0.585663
235 1 0.623292 0.160067 0.438003
313 1 0.731287 0.10077 0.537269
320 1 0.872894 0.199995 0.421212
240 1 0.830866 0.156523 0.57901
339 1 0.946869 0.086351 0.467613
301 1 0.866533 0.00490987 0.570333
437 1 0.942076 0.168522 0.565353
216 1 0.808838 0.00648995 0.487957
319 1 0.971726 0.0505708 0.574063
225 1 0.144795 0.236715 0.476727
243 1 0.0557621 0.3355 0.502247
405 1 0.0580116 0.217807 0.568177
387 1 0.257216 0.22783 0.55028
306 1 0.332914 0.288901 0.456948
345 1 0.218717 0.340879 0.468159
112 1 0.477655 0.254173 0.488525
332 1 0.562782 0.24827 0.575946
150 1 0.573445 0.342835 0.455354
305 1 0.426991 0.356255 0.499615
255 1 0.752621 0.293184 0.419563
417 1 0.794018 0.24537 0.558341
237 1 0.655614 0.277706 0.566446
173 1 0.725741 0.366774 0.530725
321 1 0.979123 0.271547 0.496212
224 1 0.834365 0.337541 0.544761
458 1 0.91422 0.381354 0.476512
344 1 0.110899 0.446391 0.455558
358 1 0.046733 0.533682 0.457274
244 1 0.107763 0.448811 0.565694
250 1 0.24237 0.424043 0.582661
327 1 0.308275 0.409708 0.537494
189 1 0.365189 0.532857 0.530203
273 1 0.219713 0.486123 0.453304
330 1 0.4077 0.448913 0.42646
176 1 0.483097 0.541427 0.569485
52 1 0.550926 0.475434 0.446982
256 1 0.504287 0.459443 0.578497
238 1 0.75413 0.432072 0.415714
259 1 0.625352 0.431445 0.535324
195 1 0.675136 0.545168 0.411982
277 1 0.72713 0.525774 0.522212
293 1 0.62279 0.550477 0.525824
204 1 0.987727 0.485555 0.598203
379 1 0.901281 0.494136 0.52646
148 1 0.126725 0.60487 0.470801
295 1 0.0849925 0.632273 0.56958
341 1 0.116891 0.75041 0.513614
262 1 0.00342666 0.652557 0.446011
70 1 0.23106 0.652661 0.410013
163 1 0.279353 0.752164 0.486859
447 1 0.22757 0.627969 0.573619
263 1 0.390605 0.658129 0.504562
289 1 0.389815 0.782744 0.551353
269 1 0.435723 0.763102 0.444452
393 1 0.491156 0.616302 0.44505
270 1 0.584207 0.642282 0.588434
317 1 0.760015 0.681408 0.547934
381 1 0.791187 0.79357 0.556019
394 1 0.604931 0.696574 0.467676
395 1 0.653882 0.717161 0.599336
294 1 0.837436 0.735374 0.444463
264 1 0.958543 0.720956 0.499617
174 1 0.819028 0.610883 0.419807
478 1 0.854029 0.631377 0.519842
377 1 0.98553 0.615805 0.570467
165 1 0.199016 0.865185 0.47588
299 1 0.00748984 0.849955 0.436211
382 1 0.0589339 0.858886 0.511849
482 1 0.0311133 0.991447 0.475199
268 1 0.192644 0.918587 0.545131
108 1 0.26405 0.996163 0.415281
290 1 0.375345 0.864938 0.443071
183 1 0.312919 0.927214 0.552173
386 1 0.455896 0.975875 0.48035
316 1 0.521824 0.845277 0.524257
211 1 0.637185 0.903531 0.402653
433 1 0.664642 0.805499 0.509678
220 1 0.767583 0.896903 0.412833
413 1 0.622244 0.90946 0.567161
213 1 0.736611 0.980531 0.511303
298 1 0.929192 0.962799 0.416365
281 1 0.865631 0.834832 0.468524
400 1 0.971382 0.827522 0.580872
388 1 0.809744 0.886411 0.588896
399 1 0.0173691 0.138608 0.684536
288 1 0.173121 0.145195 0.629112
404 1 0.102578 0.103007 0.757285
342 1 0.0902079 0.0211982 0.659954
292 1 0.243987 0.0444819 0.651083
403 1 0.230877 0.0839623 0.788354
411 1 0.244404 0.00163568 0.796377
287 1 0.376934 0.107357 0.703978
307 1 0.268135 0.17985 0.721943
336 1 0.512084 0.112766 0.644667
429 1 0.441457 0.185652 0.756731
392 1 0.495606 0.033687 0.73773
252 1 0.586493 0.00771379 0.653604
430 1 0.609644 0.132766 0.757177
35 1 0.699605 0.0849517 0.718422
423 1 0.783328 0.11744 0.697111
414 1 0.872712 0.0142722 0.671208
17 1 0.886336 0.142711 0.788472
416 1 0.813889 0.0446185 0.79125
420 1 0.983612 0.0219014 0.789074
312 1 0.0965196 0.230854 0.702319
227 1 0.180155 0.311397 0.614064
302 1 0.0346301 0.311439 0.765994
359 1 0.0413796 0.374071 0.628911
311 1 0.397221 0.213997 0.605155
25 1 0.29881 0.228946 0.686115
209 1 0.33404 0.330479 0.604061
351 1 0.364545 0.329004 0.763409
323 1 0.207417 0.356369 0.716094
409 1 0.453746 0.352792 0.621287
340 1 0.50117 0.24158 0.69931
355 1 0.508347 0.372305 0.787085
15 1 0.778118 0.247442 0.785715
354 1 0.629982 0.302233 0.745095
310 1 0.673602 0.214071 0.679673
438 1 0.73126 0.374837 0.650061
435 1 0.794779 0.378755 0.759049
303 1 0.979737 0.323749 0.61727
425 1 0.935648 0.236995 0.705473
418 1 0.846257 0.248717 0.67473
443 1 0.891517 0.384125 0.671741
324 1 0.174174 0.528835 0.619017
457 1 0.00439847 0.511849 0.65641
346 1 0.130397 0.495295 0.727281
328 1 0.0412826 0.415028 0.792126
322 1 0.128966 0.400097 0.71848
203 1 0.394346 0.444376 0.693531
248 1 0.276593 0.506729 0.685839
349 1 0.301779 0.574733 0.725198
472 1 0.354829 0.44732 0.781309
427 1 0.490854 0.410245 0.71634
449 1 0.532514 0.541602 0.742014
236 1 0.590608 0.411155 0.649858
291 1 0.456284 0.576655 0.707305
357 1 0.667704 0.567107 0.660864
360 1 0.792063 0.491767 0.728373
434 1 0.654167 0.457014 0.726652
402 1 0.935317 0.411119 0.796347
338 1 0.813724 0.476989 0.613759
422 1 0.998702 0.573514 0.756546
374 1 0.881984 0.572166 0.703027
461 1 0.116807 0.661836 0.724839
260 1 0.0386262 0.736265 0.655576
365 1 0.34914 0.628455 0.638164
242 1 0.221767 0.787006 0.617291
383 1 0.320314 0.728813 0.672325
363 1 0.201818 0.627083 0.682749
347 1 0.394859 0.659906 0.774468
489 1 0.325873 0.786173 0.784341
215 1 0.509009 0.757869 0.639644
267 1 0.444526 0.644714 0.619835
271 1 0.578392 0.654683 0.730111
350 1 0.542892 0.753196 0.750213
372 1 0.415019 0.763825 0.78179
398 1 0.794922 0.611877 0.626479
353 1 0.724932 0.672576 0.71052
333 1 0.753722 0.767913 0.680657
280 1 0.908201 0.711082 0.636199
463 1 0.952332 0.686084 0.797338
335 1 0.837776 0.71614 0.731464
181 1 0.114555 0.813637 0.67009
283 1 0.0592882 0.83159 0.768869
361 1 0.0911226 0.914702 0.609509
384 1 0.235602 0.941807 0.676399
368 1 0.221694 0.85059 0.766159
366 1 0.340015 0.871422 0.641272
369 1 0.354702 0.9921 0.715731
468 1 0.340237 0.904697 0.786915
370 1 0.462958 0.904304 0.636714
93 1 0.474578 0.887658 0.72855
13 1 0.594637 0.94139 0.76833
410 1 0.708595 0.941759 0.659537
18 1 0.73754 0.821308 0.773776
397 1 0.642242 0.810518 0.659701
496 1 0.71652 0.962277 0.751322
272 1 0.96506 0.927276 0.604964
364 1 0.880979 0.853363 0.695791
1 1 0.969785 0.939578 0.705986