500
 Atoms. Timestep: 0
1 0 0 0
1 1.5874 1.5874 0
1 1.5874 0 1.5874
1 0 1.5874 1.5874
1 3.1748 0 0
1 4.7622 1.5874 0
1 4.7622 0 1.5874
1 3.1748 1.5874 1.5874
1 6.3496 0 0
1 7.93701 1.5874 0
1 7.93701 0 1.5874
1 6.3496 1.5874 1.5874
1 9.52441 0 0
1 11.1118 1.5874 0
1 11.1118 0 1.5874
1 9.52441 1.5874 1.5874
1 12.6992 0 0
1 14.2866 1.5874 0
1 14.2866 0 1.5874
1 12.6992 1.5874 1.5874
1 0 3.1748 0
1 1.5874 4.7622 0
1 1.5874 3.1748 1.5874
1 0 4.7622 1.5874
1 3.1748 3.1748 0
1 4.7622 4.7622 0
1 4.7622 3.1748 1.5874
1 3.1748 4.7622 1.5874
1 6.3496 3.1748 0
1 7.93701 4.7622 0
1 7.93701 3.1748 1.5874
1 6.3496 4.7622 1.5874
1 9.52441 3.1748 0
1 11.1118 4.7622 0
1 11.1118 3.1748 1.5874
1 9.52441 4.7622 1.5874
1 12.6992 3.1748 0
1 14.2866 4.7622 0
1 14.2866 3.1748 1.5874
1 12.6992 4.7622 1.5874
1 0 6.3496 0
1 1.5874 7.93701 0
1 1.5874 6.3496 1.5874
1 0 7.93701 1.5874
1 3.1748 6.3496 0
1 4.7622 7.93701 0
1 4.7622 6.3496 1.5874
1 3.1748 7.93701 1.5874
1 6.3496 6.3496 0
1 7.93701 7.93701 0
1 7.93701 6.3496 1.5874
1 6.3496 7.93701 1.5874
1 9.52441 6.3496 0
1 11.1118 7.93701 0
1 11.1118 6.3496 1.5874
1 9.52441 7.93701 1.5874
1 12.6992 6.3496 0
1 14.2866 7.93701 0
1 14.2866 6.3496 1.5874
1 12.6992 7.93701 1.5874
1 0 9.52441 0
1 1.5874 11.1118 0
1 1.5874 9.52441 1.5874
1 0 11.1118 1.5874
1 3.1748 9.52441 0
1 4.7622 11.1118 0
1 4.7622 9.52441 1.5874
1 3.1748 11.1118 1.5874
1 6.3496 9.52441 0
1 7.93701 11.1118 0
1 7.93701 9.52441 1.5874
1 6.3496 11.1118 1.5874
1 9.52441 9.52441 0
1 11.1118 11.1118 0
1 11.1118 9.52441 1.5874
1 9.52441 11.1118 1.5874
1 12.6992 9.52441 0
1 14.2866 11.1118 0
1 14.2866 9.52441 1.5874
1 12.6992 11.1118 1.5874
1 0 12.6992 0
1 1.5874 14.2866 0
1 1.5874 12.6992 1.5874
1 0 14.2866 1.5874
1 3.1748 12.6992 0
1 4.7622 14.2866 0
1 4.7622 12.6992 1.5874
1 3.1748 14.2866 1.5874
1 6.3496 12.6992 0
1 7.93701 14.2866 0
1 7.93701 12.6992 1.5874
1 6.3496 14.2866 1.5874
1 9.52441 12.6992 0
1 11.1118 14.2866 0
1 11.1118 12.6992 1.5874
1 9.52441 14.2866 1.5874
1 12.6992 12.6992 0
1 14.2866 14.2866 0
1 14.2866 12.6992 1.5874
1 12.6992 14.2866 1.5874
1 0 0 3.1748
1 1.5874 1.5874 3.1748
1 1.5874 0 4.7622
1 0 1.5874 4.7622
1 3.1748 0 3.1748
1 4.7622 1.5874 3.1748
1 4.7622 0 4.7622
1 3.1748 1.5874 4.7622
1 6.3496 0 3.1748
1 7.93701 1.5874 3.1748
1 7.93701 0 4.7622
1 6.3496 1.5874 4.7622
1 9.52441 0 3.1748
1 11.1118 1.5874 3.1748
1 11.1118 0 4.7622
1 9.52441 1.5874 4.7622
1 12.6992 0 3.1748
1 14.2866 1.5874 3.1748
1 14.2866 0 4.7622
1 12.6992 1.5874 4.7622
1 0 3.1748 3.1748
1 1.5874 4.7622 3.1748
1 1.5874 3.1748 4.7622
1 0 4.7622 4.7622
1 3.1748 3.1748 3.1748
1 4.7622 4.7622 3.1748
1 4.7622 3.1748 4.7622
1 3.1748 4.7622 4.7622
1 6.3496 3.1748 3.1748
1 7.93701 4.7622 3.1748
1 7.93701 3.1748 4.7622
1 6.3496 4.7622 4.7622
1 9.52441 3.1748 3.1748
1 11.1118 4.7622 3.1748
1 11.1118 3.1748 4.7622
1 9.52441 4.7622 4.7622
1 12.6992 3.1748 3.1748
1 14.2866 4.7622 3.1748
1 14.2866 3.1748 4.7622
1 12.6992 4.7622 4.7622
1 0 6.3496 3.1748
1 1.5874 7.93701 3.1748
1 1.5874 6.3496 4.7622
1 0 7.93701 4.7622
1 3.1748 6.3496 3.1748
1 4.7622 7.93701 3.1748
1 4.7622 6.3496 4.7622
1 3.1748 7.93701 4.7622
1 6.3496 6.3496 3.1748
1 7.93701 7.93701 3.1748
1 7.93701 6.3496 4.7622
1 6.3496 7.93701 4.7622
1 9.52441 6.3496 3.1748
1 11.1118 7.93701 3.1748
1 11.1118 6.3496 4.7622
1 9.52441 7.93701 4.7622
1 12.6992 6.3496 3.1748
1 14.2866 7.93701 3.1748
1 14.2866 6.3496 4.7622
1 12.6992 7.93701 4.7622
1 0 9.52441 3.1748
1 1.5874 11.1118 3.1748
1 1.5874 9.52441 4.7622
1 0 11.1118 4.7622
1 3.1748 9.52441 3.1748
1 4.7622 11.1118 3.1748
1 4.7622 9.52441 4.7622
1 3.1748 11.1118 4.7622
1 6.3496 9.52441 3.1748
1 7.93701 11.1118 3.1748
1 7.93701 9.52441 4.7622
1 6.3496 11.1118 4.7622
1 9.52441 9.52441 3.1748
1 11.1118 11.1118 3.1748
1 11.1118 9.52441 4.7622
1 9.52441 11.1118 4.7622
1 12.6992 9.52441 3.1748
1 14.2866 11.1118 3.1748
1 14.2866 9.52441 4.7622
1 12.6992 11.1118 4.7622
1 0 12.6992 3.1748
1 1.5874 14.2866 3.1748
1 1.5874 12.6992 4.7622
1 0 14.2866 4.7622
1 3.1748 12.6992 3.1748
1 4.7622 14.2866 3.1748
1 4.7622 12.6992 4.7622
1 3.1748 14.2866 4.7622
1 6.3496 12.6992 3.1748
1 7.93701 14.2866 3.1748
1 7.93701 12.6992 4.7622
1 6.3496 14.2866 4.7622
1 9.52441 12.6992 3.1748
1 11.1118 14.2866 3.1748
1 11.1118 12.6992 4.7622
1 9.52441 14.2866 4.7622
1 12.6992 12.6992 3.1748
1 14.2866 14.2866 3.1748
1 14.2866 12.6992 4.7622
1 12.6992 14.2866 4.7622
1 0 0 6.3496
1 1.5874 1.5874 6.3496
1 1.5874 0 7.93701
1 0 1.5874 7.93701
1 3.1748 0 6.3496
1 4.7622 1.5874 6.3496
1 4.7622 0 7.93701
1 3.1748 1.5874 7.93701
1 6.3496 0 6.3496
1 7.93701 1.5874 6.3496
1 7.93701 0 7.93701
1 6.3496 1.5874 7.93701
1 9.52441 0 6.3496
1 11.1118 1.5874 6.3496
1 11.1118 0 7.93701
1 9.52441 1.5874 7.93701
1 12.6992 0 6.3496
1 14.2866 1.5874 6.3496
1 14.2866 0 7.93701
1 12.6992 1.5874 7.93701
1 0 3.1748 6.3496
1 1.5874 4.7622 6.3496
1 1.5874 3.1748 7.93701
1 0 4.7622 7.93701
1 3.1748 3.1748 6.3496
1 4.7622 4.7622 6.3496
1 4.7622 3.1748 7.93701
1 3.1748 4.7622 7.93701
1 6.3496 3.1748 6.3496
1 7.93701 4.7622 6.3496
1 7.93701 3.1748 7.93701
1 6.3496 4.7622 7.93701
1 9.52441 3.1748 6.3496
1 11.1118 4.7622 6.3496
1 11.1118 3.1748 7.93701
1 9.52441 4.7622 7.93701
1 12.6992 3.1748 6.3496
1 14.2866 4.7622 6.3496
1 14.2866 3.1748 7.93701
1 12.6992 4.7622 7.93701
1 0 6.3496 6.3496
1 1.5874 7.93701 6.3496
1 1.5874 6.3496 7.93701
1 0 7.93701 7.93701
1 3.1748 6.3496 6.3496
1 4.7622 7.93701 6.3496
1 4.7622 6.3496 7.93701
1 3.1748 7.93701 7.93701
1 6.3496 6.3496 6.3496
1 7.93701 7.93701 6.3496
1 7.93701 6.3496 7.93701
1 6.3496 7.93701 7.93701
1 9.52441 6.3496 6.3496
1 11.1118 7.93701 6.3496
1 11.1118 6.3496 7.93701
1 9.52441 7.93701 7.93701
1 12.6992 6.3496 6.3496
1 14.2866 7.93701 6.3496
1 14.2866 6.3496 7.93701
1 12.6992 7.93701 7.93701
1 0 9.52441 6.3496
1 1.5874 11.1118 6.3496
1 1.5874 9.52441 7.93701
1 0 11.1118 7.93701
1 3.1748 9.52441 6.3496
1 4.7622 11.1118 6.3496
1 4.7622 9.52441 7.93701
1 3.1748 11.1118 7.93701
1 6.3496 9.52441 6.3496
1 7.93701 11.1118 6.3496
1 7.93701 9.52441 7.93701
1 6.3496 11.1118 7.93701
1 9.52441 9.52441 6.3496
1 11.1118 11.1118 6.3496
1 11.1118 9.52441 7.93701
1 9.52441 11.1118 7.93701
1 12.6992 9.52441 6.3496
1 14.2866 11.1118 6.3496
1 14.2866 9.52441 7.93701
1 12.6992 11.1118 7.93701
1 0 12.6992 6.3496
1 1.5874 14.2866 6.3496
1 1.5874 12.6992 7.93701
1 0 14.2866 7.93701
1 3.1748 12.6992 6.3496
1 4.7622 14.2866 6.3496
1 4.7622 12.6992 7.93701
1 3.1748 14.2866 7.93701
1 6.3496 12.6992 6.3496
1 7.93701 14.2866 6.3496
1 7.93701 12.6992 7.93701
1 6.3496 14.2866 7.93701
1 9.52441 12.6992 6.3496
1 11.1118 14.2866 6.3496
1 11.1118 12.6992 7.93701
1 9.52441 14.2866 7.93701
1 12.6992 12.6992 6.3496
1 14.2866 14.2866 6.3496
1 14.2866 12.6992 7.93701
1 12.6992 14.2866 7.93701
1 0 0 9.52441
1 1.5874 1.5874 9.52441
1 1.5874 0 11.1118
1 0 1.5874 11.1118
1 3.1748 0 9.52441
1 4.7622 1.5874 9.52441
1 4.7622 0 11.1118
1 3.1748 1.5874 11.1118
1 6.3496 0 9.52441
1 7.93701 1.5874 9.52441
1 7.93701 0 11.1118
1 6.3496 1.5874 11.1118
1 9.52441 0 9.52441
1 11.1118 1.5874 9.52441
1 11.1118 0 11.1118
1 9.52441 1.5874 11.1118
1 12.6992 0 9.52441
1 14.2866 1.5874 9.52441
1 14.2866 0 11.1118
1 12.6992 1.5874 11.1118
1 0 3.1748 9.52441
1 1.5874 4.7622 9.52441
1 1.5874 3.1748 11.1118
1 0 4.7622 11.1118
1 3.1748 3.1748 9.52441
1 4.7622 4.7622 9.52441
1 4.7622 3.1748 11.1118
1 3.1748 4.7622 11.1118
1 6.3496 3.1748 9.52441
1 7.93701 4.7622 9.52441
1 7.93701 3.1748 11.1118
1 6.3496 4.7622 11.1118
1 9.52441 3.1748 9.52441
1 11.1118 4.7622 9.52441
1 11.1118 3.1748 11.1118
1 9.52441 4.7622 11.1118
1 12.6992 3.1748 9.52441
1 14.2866 4.7622 9.52441
1 14.2866 3.1748 11.1118
1 12.6992 4.7622 11.1118
1 0 6.3496 9.52441
1 1.5874 7.93701 9.52441
1 1.5874 6.3496 11.1118
1 0 7.93701 11.1118
1 3.1748 6.3496 9.52441
1 4.7622 7.93701 9.52441
1 4.7622 6.3496 11.1118
1 3.1748 7.93701 11.1118
1 6.3496 6.3496 9.52441
1 7.93701 7.93701 9.52441
1 7.93701 6.3496 11.1118
1 6.3496 7.93701 11.1118
1 9.52441 6.3496 9.52441
1 11.1118 7.93701 9.52441
1 11.1118 6.3496 11.1118
1 9.52441 7.93701 11.1118
1 12.6992 6.3496 9.52441
1 14.2866 7.93701 9.52441
1 14.2866 6.3496 11.1118
1 12.6992 7.93701 11.1118
1 0 9.52441 9.52441
1 1.5874 11.1118 9.52441
1 1.5874 9.52441 11.1118
1 0 11.1118 11.1118
1 3.1748 9.52441 9.52441
1 4.7622 11.1118 9.52441
1 4.7622 9.52441 11.1118
1 3.1748 11.1118 11.1118
1 6.3496 9.52441 9.52441
1 7.93701 11.1118 9.52441
1 7.93701 9.52441 11.1118
1 6.3496 11.1118 11.1118
1 9.52441 9.52441 9.52441
1 11.1118 11.1118 9.52441
1 11.1118 9.52441 11.1118
1 9.52441 11.1118 11.1118
1 12.6992 9.52441 9.52441
1 14.2866 11.1118 9.52441
1 14.2866 9.52441 11.1118
1 12.6992 11.1118 11.1118
1 0 12.6992 9.52441
1 1.5874 14.2866 9.52441
1 1.5874 12.6992 11.1118
1 0 14.2866 11.1118
1 3.1748 12.6992 9.52441
1 4.7622 14.2866 9.52441
1 4.7622 12.6992 11.1118
1 3.1748 14.2866 11.1118
1 6.3496 12.6992 9.52441
1 7.93701 14.2866 9.52441
1 7.93701 12.6992 11.1118
1 6.3496 14.2866 11.1118
1 9.52441 12.6992 9.52441
1 11.1118 14.2866 9.52441
1 11.1118 12.6992 11.1118
1 9.52441 14.2866 11.1118
1 12.6992 12.6992 9.52441
1 14.2866 14.2866 9.52441
1 14.2866 12.6992 11.1118
1 12.6992 14.2866 11.1118
1 0 0 12.6992
1 1.5874 1.5874 12.6992
1 1.5874 0 14.2866
1 0 1.5874 14.2866
1 3.1748 0 12.6992
1 4.7622 1.5874 12.6992
1 4.7622 0 14.2866
1 3.1748 1.5874 14.2866
1 6.3496 0 12.6992
1 7.93701 1.5874 12.6992
1 7.93701 0 14.2866
1 6.3496 1.5874 14.2866
1 9.52441 0 12.6992
1 11.1118 1.5874 12.6992
1 11.1118 0 14.2866
1 9.52441 1.5874 14.2866
1 12.6992 0 12.6992
1 14.2866 1.5874 12.6992
1 14.2866 0 14.2866
1 12.6992 1.5874 14.2866
1 0 3.1748 12.6992
1 1.5874 4.7622 12.6992
1 1.5874 3.1748 14.2866
1 0 4.7622 14.2866
1 3.1748 3.1748 12.6992
1 4.7622 4.7622 12.6992
1 4.7622 3.1748 14.2866
1 3.1748 4.7622 14.2866
1 6.3496 3.1748 12.6992
1 7.93701 4.7622 12.6992
1 7.93701 3.1748 14.2866
1 6.3496 4.7622 14.2866
1 9.52441 3.1748 12.6992
1 11.1118 4.7622 12.6992
1 11.1118 3.1748 14.2866
1 9.52441 4.7622 14.2866
1 12.6992 3.1748 12.6992
1 14.2866 4.7622 12.6992
1 14.2866 3.1748 14.2866
1 12.6992 4.7622 14.2866
1 0 6.3496 12.6992
1 1.5874 7.93701 12.6992
1 1.5874 6.3496 14.2866
1 0 7.93701 14.2866
1 3.1748 6.3496 12.6992
1 4.7622 7.93701 12.6992
1 4.7622 6.3496 14.2866
1 3.1748 7.93701 14.2866
1 6.3496 6.3496 12.6992
1 7.93701 7.93701 12.6992
1 7.93701 6.3496 14.2866
1 6.3496 7.93701 14.2866
1 9.52441 6.3496 12.6992
1 11.1118 7.93701 12.6992
1 11.1118 6.3496 14.2866
1 9.52441 7.93701 14.2866
1 12.6992 6.3496 12.6992
1 14.2866 7.93701 12.6992
1 14.2866 6.3496 14.2866
1 12.6992 7.93701 14.2866
1 0 9.52441 12.6992
1 1.5874 11.1118 12.6992
1 1.5874 9.52441 14.2866
1 0 11.1118 14.2866
1 3.1748 9.52441 12.6992
1 4.7622 11.1118 12.6992
1 4.7622 9.52441 14.2866
1 3.1748 11.1118 14.2866
1 6.3496 9.52441 12.6992
1 7.93701 11.1118 12.6992
1 7.93701 9.52441 14.2866
1 6.3496 11.1118 14.2866
1 9.52441 9.52441 12.6992
1 11.1118 11.1118 12.6992
1 11.1118 9.52441 14.2866
1 9.52441 11.1118 14.2866
1 12.6992 9.52441 12.6992
1 14.2866 11.1118 12.6992
1 14.2866 9.52441 14.2866
1 12.6992 11.1118 14.2866
1 0 12.6992 12.6992
1 1.5874 14.2866 12.6992
1 1.5874 12.6992 14.2866
1 0 14.2866 14.2866
1 3.1748 12.6992 12.6992
1 4.7622 14.2866 12.6992
1 4.7622 12.6992 14.2866
1 3.1748 14.2866 14.2866
1 6.3496 12.6992 12.6992
1 7.93701 14.2866 12.6992
1 7.93701 12.6992 14.2866
1 6.3496 14.2866 14.2866
1 9.52441 12.6992 12.6992
1 11.1118 14.2866 12.6992
1 11.1118 12.6992 14.2866
1 9.52441 14.2866 14.2866
1 12.6992 12.6992 12.6992
1 14.2866 14.2866 12.6992
1 14.2866 12.6992 14.2866
1 12.6992 14.2866 14.2866
500
 Atoms. Timestep: 100
1 0.0878489 0.0267602 0.0107897
1 1.39299 1.68479 15.7598
1 1.50887 15.6212 1.74436
1 0.0428962 1.7518 1.48666
1 3.13587 0.105652 15.8662
1 5.03446 1.69127 0.276714
1 4.58767 15.8297 1.37553
1 3.04523 1.30347 1.29901
1 6.30092 15.5805 15.7699
1 7.97653 1.50384 0.195951
1 7.7299 0.291932 1.74787
1 6.06484 1.51867 1.62869
1 9.28244 0.169071 0.115933
1 11.0031 1.47444 0.248334
1 11.306 15.6763 1.356
1 9.55314 1.59068 1.57041
1 12.4437 15.6044 15.558
1 14.4374 1.64175 0.153157
1 14.0848 0.235547 1.67247
1 12.8045 1.33713 1.56322
1 15.8172 3.06975 0.0387179
1 1.51131 4.50357 0.15075
1 1.85685 3.33349 1.59167
1 15.7508 4.56042 1.64563
1 3.26709 3.06774 15.6097
1 4.48131 4.67507 0.112696
1 4.62597 3.37339 1.70708
1 3.33982 4.52413 1.40563
1 6.46283 3.42811 0.203454
1 7.65981 4.88712 0.160811
1 8.14185 3.41619 1.34685
1 6.09752 4.79461 1.43276
1 9.41122 3.44199 0.234872
1 11.1432 4.86195 15.672
1 11.3573 3.29544 1.76839
1 9.27407 4.81384 1.3907
1 12.7209 3.3836 0.0754946
1 14.1137 5.03638 0.189719
1 14.097 2.94989 1.66664
1 12.6494 5.01758 1.63004
1 15.766 6.62791 0.185159
1 1.53545 8.20802 15.6095
1 1.44438 6.12685 1.78331
1 15.6275 8.1118 1.44144
1 3.03674 6.45221 0.101636
1 4.69008 8.14486 0.124387
1 4.90108 6.49005 1.76636
1 3.31299 7.81475 1.7241
1 6.47618 6.08639 15.5976
1 7.80041 7.8527 0.292116
1 8.10657 6.13319 1.80619
1 6.18558 7.83574 1.28266
1 9.40067 6.67105 0.0394947
1 11.2834 7.86361 15.7802
1 10.8325 6.10361 1.74036
1 9.43406 8.04544 1.61789
1 12.5669 6.65849 15.615
1 14.3189 7.9894 0.180335
1 14.5276 6.26158 1.69589
1 12.556 7.67903 1.55864
1 0.227507 9.79061 15.7829
1 1.35338 10.9541 15.7998
1 1.65016 9.25654 1.702
1 0.217211 10.8711 1.54877
1 3.18363 9.5417 15.7753
1 5.03815 10.8384 0.20477
1 4.94765 9.4583 1.36865
1 3.17111 11.3936 1.27042
1 6.55295 9.54342 15.7263
1 7.9114 11.053 15.7422
1 8.14236 9.71071 1.68084
1 6.34292 11.0634 1.49001
1 9.49132 9.43953 15.6738
1 11.1113 11.4182 0.0354667
1 10.8473 9.5796 1.56886
1 9.45405 11.2623 1.31304
1 12.7117 9.35843 15.765
1 14.0292 11.2 0.254047
1 14.258 9.5388 1.37998
1 12.4124 10.976 1.34044
1 0.200804 12.5851 15.8467
1 1.3072 14.3147 0.206343
1 1.80919 12.8008 1.56066
1 15.7662 14.5464 1.75384
1 3.23082 12.9379 15.6026
1 4.96159 14.4987 15.7056
1 4.88258 12.7826 1.6039
1 3.14486 14.5174 1.6634
1 6.44076 12.6773 0.019251
1 8.1585 14.3489 15.7108
1 7.73655 12.6206 1.39749
1 6.61608 14.2099 1.64023
1 9.40882 12.5636 15.7185
1 11.0886 14.4639 0.130924
1 11.21 12.8543 1.76269
1 9.46165 14.4324 1.7518
1 12.612 12.6284 0.0294391
1 14.5348 14.0197 15.86
1 14.1063 12.7619 1.71868
1 12.7704 14.227 1.33775
1 0.251272 0.248099 3.16673
1 1.39903 1.64018 3.19676
1 1.78289 15.675 4.75142
1 0.148673 1.59646 4.91541
1 3.03571 0.205467 3.23969
1 4.94017 1.88144 3.02971
1 4.78881 0.0448374 4.77045
1 3.19701 1.77224 4.64785
1 6.47329 15.8094 3.15392
1 7.71689 1.86673 3.10208
1 7.99699 0.283977 4.6625
1 6.3889 1.61277 4.85886
1 9.59972 15.7982 3.27094
1 10.8772 1.30256 3.28189
1 11.3996 15.6078 4.88793
1 9.59795 1.83661 4.49199
1 12.4134 0.253089 2.9285
1 14.4468 1.75582 3.17617
1 14.5066 15.8327 4.97439
1 12.8962 1.42064 4.65797
1 0.17522 3.46805 3.43878
1 1.72438 4.83578 2.9902
1 1.80001 3.46986 4.81687
1 15.6009 4.62437 4.59092
1 3.06007 3.22626 3.0632
1 4.7938 4.46179 3.40039
1 4.92462 3.17912 5.04191
1 3.29963 4.89686 4.72227
1 6.47211 3.0931 3.08167
1 8.0567 4.96726 3.17077
1 7.64874 3.11141 4.64647
1 6.3665 4.68234 4.71421
1 9.29288 2.97526 3.15517
1 11.2405 4.84221 3.39716
1 11.2768 3.11571 4.54487
1 9.55742 4.61287 4.99305
1 12.836 3.27008 3.42267
1 14.0794 4.50195 3.0299
1 14.5529 2.92498 4.80314
1 12.9111 4.57442 4.60751
1 0.232365 6.11632 3.06465
1 1.42498 8.05309 3.0103
1 1.30606 6.42803 4.54329
1 15.7841 8.103 4.63174
1 3.37111 6.09093 3.38284
1 4.85761 7.9307 3.09334
1 4.63903 6.20809 4.721
1 3.17124 8.1642 4.53059
1 6.25301 6.19979 3.07235
1 7.63576 7.96219 2.98269
1 7.9854 6.25988 4.88206
1 6.21187 8.13864 4.70373
1 9.55625 6.40076 2.97277
1 10.8393 7.94245 3.04817
1 10.9228 6.03904 5.01779
1 9.65028 8.00941 4.92905
1 12.483 6.13389 3.15045
1 14.4489 8.00758 3.03046
1 14.1328 6.63786 4.85908
1 12.5804 8.06031 5.00635
1 0.249895 9.54101 3.33762
1 1.74333 10.9044 3.37527
1 1.7142 9.38045 4.76561
1 0.0675004 11.1695 5.04513
1 3.16767 9.57626 2.959
1 4.70587 11.3513 3.25827
1 4.94029 9.4764 4.5039
1 2.97421 10.9344 4.6003
1 6.29953 9.44032 3.21355
1 8.09659 10.9455 3.13406
1 7.68129 9.2749 4.8457
1 6.19166 11.1052 4.65788
1 9.71042 9.25264 3.0127
1 11.2675 11.2771 3.01291
1 11.209 9.69786 4.96956
1 9.30245 11.2448 4.64469
1 12.9039 9.28656 3.2426
1 14.1081 10.8769 3.35008
1 14.5588 9.52465 4.68668
1 12.6362 11.0865 4.59051
1 15.6375 12.5355 3.22574
1 1.69197 14.039 3.31142
1 1.48961 12.4257 4.54942
1 0.313357 14.0697 4.87633
1 3.40602 12.6708 3.01648
1 4.55865 14.4578 3.41557
1 4.73851 12.6175 4.68252
1 3.07644 14.356 4.9992
1 6.31329 12.8226 3.34841
1 7.97715 14.1891 3.359
1 7.75494 12.5899 4.69738
1 6.24951 14.4291 4.6777
1 9.38687 12.9676 3.39136
1 11.3319 14.4154 3.28763
1 11.2125 12.6236 5.00007
1 9.74295 14.5024 4.71537
1 12.7776 12.437 3.02357
1 14.2688 14.4275 3.2096
1 14.4337 12.9451 4.50041
1 12.6043 14.2859 4.88956
1 0.109386 15.8512 6.31764
1 1.76545 1.47326 6.29685
1 1.69417 15.7036 8.04489
1 0.250463 1.83295 8.19197
1 3.38208 0.243776 6.61426
1 4.72066 1.69822 6.4451
1 4.77446 15.6773 7.93362
1 2.99735 1.73056 8.24061
1 6.34722 0.110711 6.21863
1 8.19811 1.71123 6.61573
1 7.85958 0.256134 7.86203
1 6.27115 1.6765 8.01804
1 9.3791 0.131656 6.11273
1 11.125 1.5203 6.09198
1 11.2689 15.6192 7.92177
1 9.49617 1.84043 7.9826
1 12.6786 15.6328 6.47855
1 14.3604 1.45604 6.64234
1 14.1743 0.0160437 7.74839
1 12.755 1.45624 7.73534
1 15.7913 3.03091 6.52173
1 1.5523 4.55559 6.47314
1 1.7475 2.95304 7.81967
1 15.67 4.81774 8.07882
1 2.92108 3.20473 6.19243
1 4.52276 4.6833 6.50432
1 4.64251 3.11886 8.0625
1 3.09574 4.80003 7.85495
1 6.38682 3.37568 6.30199
1 7.70949 4.80257 6.2577
1 8.17605 3.38979 7.78536
1 6.13207 4.60878 8.06938
1 9.24981 3.30948 6.36067
1 11.163 4.74001 6.45994
1 10.8181 3.27846 7.81042
1 9.75603 4.65195 7.68206
1 12.7256 2.98688 6.31786
1 14.1837 5.00206 6.18807
1 14.4152 3.17017 7.76683
1 12.726 4.49421 7.64083
1 15.7862 6.17627 6.17549
1 1.82492 8.05652 6.44093
1 1.71474 6.42261 8.08061
1 15.5906 8.0016 8.0268
1 3.21906 6.31285 6.05082
1 4.94769 7.86364 6.39671
1 4.84033 6.59057 8.20676
1 2.92466 7.82622 7.6881
1 6.22121 6.3868 6.50879
1 7.9005 8.13448 6.51322
1 7.84715 6.07424 8.0639
1 6.1355 8.14281 8.14106
1 9.659 6.60254 6.60749
1 11.174 7.66049 6.1735
1 10.8662 6.64836 8.0857
1 9.22946 8.12486 7.94754
1 12.6591 6.57048 6.48496
1 14.2482 7.75783 6.08585
1 14.0501 6.59574 7.76782
1 12.5681 8.1258 7.89753
1 15.7467 9.36778 6.36713
1 1.69533 10.8882 6.18061
1 1.8381 9.42563 8.16152
1 0.0335561 11.3999 8.02806
1 3.47911 9.69063 6.47354
1 4.80024 10.8366 6.21853
1 4.87359 9.32722 8.14786
1 3.22107 11.0493 8.11535
1 6.36493 9.48587 6.45286
1 8.18586 10.9283 6.40264
1 8.1274 9.52896 8.02516
1 6.04857 11.0562 7.73119
1 9.39234 9.44087 6.28371
1 11.1075 11.2009 6.36044
1 10.8941 9.22933 8.08179
1 9.7625 11.3823 8.15194
1 12.7871 9.48744 6.48938
1 14.0742 10.9054 6.56843
1 14.0157 9.54536 8.00333
1 12.6535 11.2413 8.01853
1 15.7238 12.735 6.30448
1 1.79101 14.3003 6.64176
1 1.46242 12.812 7.73141
1 0.147112 14.5103 8.13357
1 2.96396 12.4756 6.09137
1 4.76594 14.5412 6.52301
1 4.59511 12.756 7.98985
1 2.94726 14.3948 8.22892
1 6.13913 12.4475 6.3675
1 7.97301 14.0806 6.25395
1 7.86736 12.869 7.65866
1 6.12453 14.4048 7.82527
1 9.61387 12.8675 6.36999
1 10.9723 14.1549 6.53319
1 11.0777 12.5528 7.92303
1 9.54579 14.0799 8.20788
1 12.9716 12.4441 6.60582
1 14.0683 14.3611 6.30766
1 14.2665 12.8185 7.79126
1 12.6018 14.5332 7.73846
1 15.7577 0.108063 9.40602
1 1.68004 1.49111 9.78473
1 1.83949 15.6383 11.2577
1 0.0222274 1.73797 11.0904
1 3.3118 0.0164997 9.53489
1 4.69665 1.5945 9.63967
1 4.87234 15.6111 11.1995
1 3.16317 1.40848 11.2235
1 6.26455 0.178836 9.50124
1 8.09348 1.62072 9.7022
1 7.63459 15.6648 10.8516
1 6.57002 1.56625 11.0986
1 9.25203 15.8236 9.27621
1 10.932 1.40575 9.44361
1 10.9333 15.7543 11.2106
1 9.73819 1.28914 11.0342
1 12.7915 0.0954688 9.51859
1 13.968 1.5718 9.4668
1 14.5121 15.8199 11.2069
1 12.825 1.80974 11.3565
1 0.0520326 3.13483 9.67504
1 1.3123 4.82511 9.61686
1 1.69 2.94978 11.1929
1 0.283118 4.86596 11.0792
1 3.00224 3.32879 9.45572
1 4.66868 4.90986 9.57327
1 4.83216 3.38762 11.0223
1 3.30274 4.7275 10.9101
1 6.54107 2.98452 9.58503
1 7.94079 4.86611 9.4445
1 7.67015 3.33931 11.3231
1 6.23156 4.98971 10.8284
1 9.28513 3.08305 9.81277
1 11.2069 4.76851 9.31601
1 10.8753 3.24381 11.1744
1 9.66706 4.53922 11.2211
1 12.4621 3.43835 9.67028
1 14.0834 4.89862 9.64517
1 14.443 3.45861 11.1245
1 12.7927 5.05298 10.8895
1 0.235062 6.47116 9.21528
1 1.61485 7.82753 9.73441
1 1.79645 6.46009 11.0981
1 15.6458 7.82378 10.9253
1 2.89338 6.51591 9.40063
1 4.66904 8.09324 9.4357
1 4.61575 6.63755 10.8514
1 3.14676 7.83 10.8902
1 6.58436 6.49779 9.38345
1 7.77192 7.87223 9.63603
1 7.69456 6.56229 11.1592
1 6.04565 8.07092 11.3411
1 9.60745 6.22581 9.60681
1 11.0152 7.93788 9.70351
1 10.904 6.23591 11.1291
1 9.28431 7.9979 11.1406
1 12.4418 6.46173 9.58864
1 14.2862 7.79677 9.78503
1 14.5168 6.09129 11.2226
1 12.7097 7.99124 10.8596
1 0.217335 9.37148 9.30186
1 1.73325 10.8314 9.34776
1 1.81383 9.28375 11.3186
1 0.0143394 11.2106 10.847
1 3.35918 9.3833 9.65695
1 4.97089 11.2891 9.74004
1 4.72253 9.47203 10.8595
1 3.31821 11.1678 10.8837
1 6.38683 9.48462 9.48248
1 8.18741 11.2098 9.30766
1 7.78068 9.5048 10.9736
1 6.37476 11.2304 11.0215
1 9.34773 9.6303 9.36309
1 11.0587 11.1376 9.49411
1 11.1371 9.25636 11.1088
1 9.73165 11.0739 11.0463
1 12.8605 9.80538 9.51358
1 14.2091 11.0147 9.33561
1 14.0009 9.42739 11.1234
1 12.4318 11.4053 11.3701
1 0.11045 12.7599 9.65923
1 1.6731 14.5855 9.53847
1 1.53606 12.6669 11.0117
1 15.6832 14.0429 11.1602
1 2.98093 12.5267 9.52011
1 4.7189 14.3526 9.40217
1 4.54398 12.8042 10.8517
1 3.35159 14.1535 10.8786
1 6.27888 12.7776 9.49657
1 8.11205 14.0867 9.27671
1 8.19725 12.4824 10.9566
1 6.17871 14.2217 11.1965
1 9.67288 12.4967 9.40542
1 11.038 14.4867 9.69942
1 10.9285 12.9494 11.0182
1 9.23013 14.0194 10.9652
1 12.7911 12.5076 9.67483
1 14.3337 14.4293 9.64374
1 14.3977 12.9117 11.4139
1 12.8403 14.1898 10.8994
1 0.29493 15.664 12.7015
1 1.74281 1.43955 12.9184
1 1.90362 0.0749149 14.4449
1 0.0962887 1.35342 14.028
1 3.0458 15.7407 12.5521
1 4.78476 1.63525 12.5504
1 4.70544 0.222105 14.4856
1 3.31331 1.50309 14.1979
1 6.18997 15.7637 12.7942
1 8.12341 1.67004 12.45
1 8.04866 0.124992 14.0743
1 6.37458 1.67556 14.5054
1 9.67584 0.00693063 12.9224
1 11.2829 1.67661 12.4422
1 11.0455 0.166368 14.1108
1 9.69773 1.74947 14.5799
1 12.4739 0.0759558 12.4911
1 14.3737 1.47124 12.5495
1 14.3748 15.7305 14.1709
1 12.6958 1.72529 14.5473
1 15.744 3.14035 12.7466
1 1.71419 4.58673 12.7431
1 1.6782 3.17548 14.4798
1 15.7225 4.64865 14.2342
1 2.97879 3.08826 12.7888
1 4.9469 4.72895 12.6615
1 4.70932 3.26725 14.2243
1 2.96484 4.68741 14.3246
1 6.54951 3.16419 12.5415
1 8.08648 4.85731 12.8707
1 8.08502 3.06606 14.026
1 6.06382 4.62152 14.5426
1 9.79554 3.05091 12.9708
1 10.9584 4.87574 12.8765
1 11.3617 3.15028 14.5573
1 9.70034 4.80897 14.6077
1 12.4009 3.00942 12.9907
1 14.4179 4.74311 12.6996
1 14.2752 2.96084 14.1817
1 12.7293 4.77775 14.2942
1 0.00722195 6.34518 12.7691
1 1.42112 7.80195 12.6048
1 1.77828 6.3484 14.3724
1 0.0133496 8.11702 14.3481
1 3.31796 6.34264 12.8757
1 4.52785 7.80643 12.783
1 4.78813 6.06664 14.298
1 3.34082 7.81719 14.4642
1 6.60332 6.62929 12.7651
1 8.10984 8.19758 12.458
1 7.80884 6.14598 14.2687
1 6.29651 7.74398 14.118
1 9.34276 6.10293 13.0015
1 11.3643 7.67783 12.7335
1 11.0226 6.33167 14.5569
1 9.31837 8.21851 14.2332
1 12.9791 6.32723 12.7046
1 14.1456 7.85584 12.4806
1 14.18 6.38408 14.4872
1 12.4995 8.21733 14.1023
1 15.6049 9.5056 12.6996
1 1.80639 11.1549 12.94
1 1.55926 9.33273 13.9721
1 0.117236 10.8686 14.0423
1 3.4567 9.73229 12.4181
1 4.64826 10.8598 12.8881
1 4.89795 9.30248 14.5063
1 3.34395 10.8241 14.0937
1 6.53781 9.46778 12.8008
1 8.13418 10.8873 12.973
1 7.74465 9.41357 14.0288
1 6.56116 11.3842 14.1738
1 9.32301 9.64062 12.4309
1 10.9839 10.9334 12.6059
1 11.0423 9.60189 14.5316
1 9.50533 10.8385 14.1164
1 12.8539 9.7484 12.9205
1 14.1636 11.3195 12.4672
1 14.4361 9.64154 14.2283
1 12.982 10.8509 14.0724
1 0.00539326 12.702 12.6579
1 1.66634 14.3443 12.673
1 1.73328 12.4669 14.1534
1 0.31743 14.301 14.0226
1 3.28082 12.9694 12.4969
1 4.88008 14.522 12.6727
1 4.98731 12.6845 14.3245
1 3.11483 14.0342 14.1675
1 6.06467 12.8638 12.3937
1 7.8799 14.4015 12.9659
1 7.89371 12.9016 14.4967
1 6.25535 13.9984 13.9981
1 9.52747 12.5088 12.7638
1 11.2196 14.3922 12.8843
1 11.1848 12.4465 14.1798
1 9.63737 14.3663 14.1839
1 12.4961 12.7161 12.8844
1 14.5429 14.4303 12.9155
1 14.3847 12.632 14.1603
1 12.8992 14.2852 14.1877
500
 Atoms. Timestep: 200
1 0.0700084 0.0443813 15.8578
1 1.26781 1.73632 15.7047
1 1.46084 15.489 1.86618
1 0.176935 1.88763 1.51871
1 3.05472 0.0847552 15.813
1 5.23075 1.86217 0.433906
1 4.56192 15.7201 1.35531
1 2.88045 1.21867 1.15048
1 6.43863 15.3701 15.6626
1 7.87225 1.52742 0.279339
1 7.60751 0.447824 1.89031
1 5.88244 1.43842 1.60166
1 9.11644 0.194193 0.181937
1 10.996 1.46583 0.48602
1 11.3564 15.5318 1.24169
1 9.62698 1.60784 1.64895
1 12.4061 15.4611 15.218
1 14.4976 1.58462 0.11056
1 14.0332 0.286633 1.70181
1 12.7731 1.26786 1.44903
1 15.6701 3.10616 15.8604
1 1.36494 4.45554 0.230748
1 2.0039 3.28987 1.57175
1 15.6139 4.2855 1.61678
1 3.38736 2.83103 15.4625
1 4.23037 4.71961 0.145347
1 4.52959 3.42468 1.77667
1 3.45703 4.53488 1.27796
1 6.54718 3.44052 0.333561
1 7.53187 5.05103 0.173901
1 8.19178 3.48168 1.27471
1 5.88084 4.87287 1.44904
1 9.4396 3.54299 0.329307
1 11.2223 4.94169 15.6993
1 11.4964 3.35409 1.95122
1 9.27586 4.86023 1.27017
1 12.8134 3.52787 0.223341
1 14.0237 5.18551 0.299039
1 13.9116 2.84304 1.69426
1 12.5796 5.25586 1.55432
1 15.8645 6.7244 0.225586
1 1.53006 8.34798 15.514
1 1.43429 6.07768 1.75837
1 15.5781 8.31318 1.37066
1 2.90416 6.50367 0.29335
1 4.63038 8.12767 0.173048
1 4.92463 6.46941 1.81097
1 3.31193 7.6533 1.84237
1 6.46844 6.05077 15.4629
1 7.65357 7.79225 0.476133
1 8.08434 6.07703 1.9371
1 6.15582 7.70532 1.01971
1 9.28334 6.94693 0.0154004
1 11.2629 7.86615 15.8216
1 10.6333 5.88981 1.72129
1 9.33385 8.08636 1.52517
1 12.5473 6.86399 15.45
1 14.252 8.04964 0.200478
1 14.6391 6.22014 1.90717
1 12.4385 7.47736 1.63678
1 0.29576 9.98337 15.7166
1 1.3622 10.8654 15.7062
1 1.76209 9.05901 1.65164
1 0.340065 10.7841 1.67921
1 3.09326 9.64087 15.7595
1 5.16933 10.7715 0.232002
1 5.03551 9.46602 1.37832
1 3.17009 11.5349 0.95354
1 6.83728 9.51066 15.5744
1 7.91745 10.9348 15.5916
1 8.2293 9.84119 1.70342
1 6.38215 11.0237 1.59136
1 9.40522 9.36533 15.6112
1 11.0708 11.6181 0.00387934
1 10.7401 9.64026 1.4642
1 9.44939 11.4518 1.20702
1 12.7255 9.26542 15.7295
1 13.96 11.3131 0.394621
1 14.1976 9.65835 1.29304
1 12.2002 10.7288 1.21109
1 0.30679 12.4643 15.8292
1 1.1351 14.2914 0.270981
1 1.88597 12.834 1.57191
1 15.5843 14.6624 1.95793
1 3.31578 13.1033 15.459
1 5.0449 14.5447 15.5861
1 4.98929 12.9603 1.52439
1 3.18961 14.6191 1.68488
1 6.40996 12.7158 0.0444577
1 8.33384 14.4882 15.6513
1 7.6873 12.5692 1.37374
1 6.80051 14.2265 1.69175
1 9.41223 12.5553 15.5671
1 10.8793 14.4307 0.0922631
1 11.1383 13.0635 1.90578
1 9.35863 14.5057 1.82178
1 12.5683 12.6603 15.7795
1 14.7668 13.8494 15.8179
1 14.0943 12.7591 1.81355
1 12.9487 14.226 1.18199
1 0.346173 0.368296 3.24929
1 1.30694 1.79963 3.19424
1 1.91711 15.58 4.79095
1 0.353469 1.60003 5.06419
1 3.00108 0.444668 3.27383
1 4.9515 2.00669 3.02408
1 4.73292 0.209743 4.74353
1 3.26967 1.89076 4.52146
1 6.46131 15.7573 3.1403
1 7.56373 2.01178 2.95447
1 8.0387 0.513567 4.58037
1 6.3719 1.59541 4.9693
1 9.5889 15.7669 3.27478
1 10.7628 1.12264 3.3155
1 11.6239 15.51 5.04232
1 9.60639 2.04874 4.41925
1 12.2577 0.425158 2.84211
1 14.6472 1.81531 3.21473
1 14.6923 15.7952 5.01236
1 13.0887 1.21783 4.59832
1 0.383258 3.62381 3.56865
1 1.91627 4.8666 2.90393
1 1.86661 3.7257 4.80555
1 15.3677 4.61673 4.53664
1 2.97995 3.1457 3.05106
1 4.85787 4.186 3.55737
1 4.97682 3.14004 5.23729
1 3.29784 4.8925 4.73315
1 6.5872 3.19113 2.88326
1 8.14509 5.00556 3.2882
1 7.52136 3.09617 4.63474
1 6.357 4.7563 4.6439
1 9.19327 3.00869 3.06923
1 11.1501 4.82748 3.56788
1 11.3542 3.0503 4.42253
1 9.52696 4.46379 5.08739
1 12.8934 3.15436 3.55531
1 13.9979 4.38766 2.87286
1 14.7119 2.68405 4.95765
1 13.1118 4.52457 4.68584
1 0.227617 5.99047 3.0479
1 1.3321 7.981 2.85996
1 1.15581 6.50868 4.49306
1 15.8021 8.1011 4.57475
1 3.45864 5.98436 3.3861
1 4.90899 7.91599 3.05758
1 4.764 6.22396 4.7417
1 3.21569 8.26324 4.36775
1 6.2259 6.07151 3.08936
1 7.42929 7.92038 2.85164
1 8.04481 6.34798 4.97562
1 6.11851 8.03647 4.72869
1 9.57723 6.46835 3.05059
1 10.8362 7.89457 3.07666
1 10.7909 5.81754 5.12803
1 9.67235 8.03372 4.94092
1 12.394 6.18716 3.26576
1 14.5284 7.96248 2.91619
1 13.9766 6.78127 4.66972
1 12.4256 8.18305 4.99214
1 0.362212 9.69777 3.40018
1 1.81396 10.8362 3.33069
1 1.78436 9.16115 4.87786
1 0.00542456 11.1798 5.30855
1 3.32276 9.67442 2.647
1 4.66846 11.3908 3.18383
1 4.92217 9.48046 4.33347
1 3.00396 10.7777 4.4919
1 6.30461 9.50532 3.04422
1 8.19983 10.8368 3.11538
1 7.60608 9.13078 4.82015
1 6.20863 11.0515 4.58162
1 9.81022 9.18904 3.12259
1 11.2014 11.3198 2.95103
1 11.2063 9.85529 5.06272
1 9.23405 11.2671 4.53947
1 12.9195 9.01591 3.22426
1 14.0736 10.6862 3.37813
1 14.6778 9.58873 4.69853
1 12.6453 11.0748 4.57152
1 15.5352 12.3209 3.09068
1 1.76105 13.8116 3.38591
1 1.44166 12.2652 4.36093
1 0.56185 13.9885 4.98967
1 3.51447 12.6894 2.91395
1 4.37874 14.6215 3.52466
1 4.63289 12.6623 4.78614
1 3.07508 14.3419 5.23721
1 6.29466 12.9089 3.37744
1 7.98998 14.1791 3.51637
1 7.58285 12.4704 4.76421
1 6.19842 14.5098 4.73562
1 9.3852 13.0926 3.49455
1 11.5762 14.4012 3.29189
1 11.3234 12.5766 5.09736
1 9.87619 14.6279 4.75287
1 12.8672 12.3334 2.96096
1 14.1857 14.6927 3.26253
1 14.4344 13.1039 4.38898
1 12.6199 14.136 4.92061
1 0.268794 15.7962 6.36447
1 1.8812 1.3106 6.23102
1 1.73404 15.8201 8.06052
1 0.431022 1.91833 8.40694
1 3.50338 0.47418 6.79226
1 4.67816 1.80897 6.56953
1 4.78072 15.7148 7.98023
1 2.9258 1.76409 8.46516
1 6.44579 0.216104 6.15473
1 8.30065 1.80177 6.71485
1 7.75362 0.337293 7.76924
1 6.2264 1.7956 8.00883