LAMMPS (23 Jun 2022 - Update 1)
#isotropic core-softened ramp-like potential

units		lj
atom_style	atomic
boundary        p p p

lattice		fcc 0.125 #densidade
Lattice spacing in x,y,z = 3.1748021 3.1748021 3.1748021
region		box block 0 5 0 5 0 5
create_box	1 box
Created orthogonal box = (0 0 0) to (15.874011 15.874011 15.874011)
  1 by 1 by 1 MPI processor grid
create_atoms	1 box
Created 500 atoms
  using lattice units in orthogonal box = (0 0 0) to (15.874011 15.874011 15.874011)
  create_atoms CPU = 0.000 seconds
mass		1 1.0
#create_atoms   1 random 500 341341 box

#pair_style	lj/cut 2.5
#pair_coeff	1 1 1.0 1.0 2.5
#pair_modify 	tail yes


pair_style table linear 100000
#pair_coeff * * tabela_potencia.txt tabela_potencia
pair_coeff * * table.txt LJ
Reading pair table potential file table.txt with DATE: 2023-05-30
WARNING: 13603 of 100000 force values in table LJ are inconsistent with -dE/dr.
WARNING:  Should only be flagged at inflection points (../pair_table.cpp:463)

#pair_write 1 1 100000 r 0.1 6.0 table.txt LJ

neighbor	0.3 bin
neigh_modify	every 20 delay 0 check no

#----------------------------------------------------------------------
variable a loop 7
variable t index  0.15 0.18 0.23 0.262 0.3 0.35 0.4
velocity all create $t 87287
velocity all create 0.15 87287
#-----------------------------------------------------------------------

#equilibração

fix 2 all nve temp $t $t 0.1
fix 2 all nve temp 0.15 $t 0.1
fix 2 all nve temp 0.15 0.15 0.1

timestep 0.003
thermo 500
thermo_style custom step pe temp vol
dump 2 all xyz 100 file.xyz
run 30000
Generated 0 of 0 mixed pair_coeff terms from geometric mixing rule
Neighbor list info ...
  update every 20 steps, delay 0 steps, check no
  max neighbors/atom: 2000, page size: 100000
  master list distance cutoff = 6.3
  ghost atom cutoff = 6.3
  binsize = 3.15, bins = 6 6 6
  1 neighbor lists, perpetual/occasional/extra = 1 0 0
  (1) pair table, perpetual
      attributes: half, newton on
      pair build: half/bin/atomonly/newton
      stencil: half/bin/3d
      bin: standard
Per MPI rank memory allocation (min/avg/max) = 3.688 | 3.688 | 3.688 Mbytes
   Step         PotEng          Temp          Volume    
         0   2.1343106      0.15           4000         
       500   2.242698       0.078086784    4000         
      1000   2.2468703      0.075293405    4000         
      1500   2.2465896      0.075474149    4000         
      2000   2.249438       0.07358508     4000         
      2500   2.2541397      0.070444488    4000         
      3000   2.2521307      0.071788052    4000         
      3500   2.2482125      0.074398825    4000         
      4000   2.2556769      0.069419004    4000         
      4500   2.2501244      0.073126486    4000         
      5000   2.2553195      0.069648322    4000         
      5500   2.2516691      0.072089839    4000         
      6000   2.2492146      0.073730903    4000         
      6500   2.2518803      0.071955993    4000         
      7000   2.2563347      0.06897728     4000         
      7500   2.2508344      0.072646152    4000         
      8000   2.2516746      0.072078438    4000         
      8500   2.2556124      0.069461438    4000         
      9000   2.2500169      0.073198781    4000         
      9500   2.2514538      0.072234183    4000         
     10000   2.2568388      0.068639527    4000         
     10500   2.2531892      0.071078146    4000         
     11000   2.2539937      0.070541089    4000         
     11500   2.2521591      0.071760483    4000         
     12000   2.2504314      0.072919864    4000         
     12500   2.247672       0.074757201    4000         
     13000   2.2464704      0.075556756    4000         
     13500   2.257513       0.068190286    4000         
     14000   2.2568152      0.068654983    4000         
     14500   2.2521775      0.0717526      4000         
     15000   2.256569       0.068812339    4000         
     15500   2.2513336      0.072315628    4000         
     16000   2.2545336      0.070179357    4000         
     16500   2.2516504      0.072103333    4000         
     17000   2.2533801      0.070947803    4000         
     17500   2.2595715      0.066824882    4000         
     18000   2.2474532      0.074900856    4000         
     18500   2.2530747      0.071152743    4000         
     19000   2.2459067      0.075940579    4000         
     19500   2.2459497      0.075907257    4000         
     20000   2.2540017      0.07053411     4000         
     20500   2.2534778      0.070880252    4000         
     21000   2.2449303      0.076592634    4000         
     21500   2.257505       0.068198129    4000         
     22000   2.2561862      0.069076364    4000         
     22500   2.24765        0.074769062    4000         
     23000   2.2564274      0.06890925     4000         
     23500   2.2558087      0.069328372    4000         
     24000   2.2515808      0.072143492    4000         
     24500   2.2515272      0.072186081    4000         
     25000   2.252958       0.071226175    4000         
     25500   2.2540044      0.070535302    4000         
     26000   2.2538026      0.070663153    4000         
     26500   2.2470815      0.075149553    4000         
     27000   2.251182       0.072414648    4000         
     27500   2.2511141      0.072463246    4000         
     28000   2.2517315      0.072047403    4000         
     28500   2.2549507      0.069897388    4000         
     29000   2.2479896      0.074541616    4000         
     29500   2.255623       0.069445264    4000         
     30000   2.2561513      0.069096243    4000         
Loop time of 14.9348 on 1 procs for 30000 steps with 500 atoms

Performance: 520663.424 tau/day, 2008.732 timesteps/s
98.5% CPU use with 1 MPI tasks x no OpenMP threads

MPI task timing breakdown:
Section |  min time  |  avg time  |  max time  |%varavg| %total
---------------------------------------------------------------
Pair    | 13.454     | 13.454     | 13.454     |   0.0 | 90.09
Neigh   | 1.0192     | 1.0192     | 1.0192     |   0.0 |  6.82
Comm    | 0.23109    | 0.23109    | 0.23109    |   0.0 |  1.55
Output  | 0.1051     | 0.1051     | 0.1051     |   0.0 |  0.70
Modify  | 0.087584   | 0.087584   | 0.087584   |   0.0 |  0.59
Other   |            | 0.03769    |            |       |  0.25

Nlocal:            500 ave         500 max         500 min
Histogram: 1 0 0 0 0 0 0 0 0 0
Nghost:           2335 ave        2335 max        2335 min
Histogram: 1 0 0 0 0 0 0 0 0 0
Neighs:          33668 ave       33668 max       33668 min
Histogram: 1 0 0 0 0 0 0 0 0 0

Total # of neighbors = 33668
Ave neighs/atom = 67.336
Neighbor list builds = 1500
Dangerous builds not checked
#-------------------------
#Produção
unfix 2
undump 2
reset_timestep 0

compute t all temp
compute pp all pressure t
compute en all pe pair
compute srdf all rdf 100 1 1 #cutoff 3.0
compute msd all msd


#fix 1 all nvt temp $t $t 0.1
fix 1 all npt temp $t $t 0.1 iso 0.0 0.0 1000.0
fix 1 all npt temp 0.15 $t 0.1 iso 0.0 0.0 1000.0
fix 1 all npt temp 0.15 0.15 0.1 iso 0.0 0.0 1000.0
fix 5 all ave/time 100 5 500 c_t c_pp c_en file thermodynamics.dat
fix 6 all ave/time 10 15000 250000 c_srdf[*] file rdf$t.txt mode vector
fix 6 all ave/time 10 15000 250000 c_srdf[*] file rdf0.15.txt mode vector
fix 9 all ave/time 10 10 100 c_msd[4] file msd_$t.txt mode scalar
fix 9 all ave/time 10 10 100 c_msd[4] file msd_0.15.txt mode scalar

dump 1 all atom 1000 dump.$a
dump 1 all atom 1000 dump.1
dump id all atom 50 dump$t.lammpstrj
dump id all atom 50 dump0.15.lammpstrj
#dump 3 all custom 100 rdf.dump id type x y z ix iy iz vx vy
#-------------PASTA----------
shell mkdir MSD
shell mv msd_$t.txt MSD/
shell mv msd_0.15.txt MSD/
#----------------------------
shell mkdir RDF
shell mv rdf$t.txt RDF/
shell mv rdf0.15.txt RDF/
#-------------PASTA----------
thermo 100
run 250000
Generated 0 of 0 mixed pair_coeff terms from geometric mixing rule
Neighbor list info ...
  update every 20 steps, delay 0 steps, check no
  max neighbors/atom: 2000, page size: 100000
  master list distance cutoff = 6.3
  ghost atom cutoff = 6.3
  binsize = 3.15, bins = 6 6 6
  2 neighbor lists, perpetual/occasional/extra = 1 1 0
  (1) pair table, perpetual
      attributes: half, newton on
      pair build: half/bin/atomonly/newton
      stencil: half/bin/3d
      bin: standard
  (2) compute rdf, occasional, copy from (1)
      attributes: half, newton on
      pair build: copy
      stencil: none
      bin: none
Per MPI rank memory allocation (min/avg/max) = 5.06 | 5.06 | 5.06 Mbytes
   Step         PotEng          Temp          Volume    
         0   2.2561513      0.069096243    4000         
       100   2.2734391      0.13450502     4000.0196    
       200   2.3436626      0.15058929     4000.0786    
       300   2.3815275      0.14940269     4000.1772    
       400   2.425688       0.15013077     4000.315     
       500   2.455756       0.15228277     4000.4917    
       600   2.4576341      0.14830961     4000.7071    
       700   2.4610506      0.14925987     4000.9612    
       800   2.4582024      0.15938131     4001.2538    
       900   2.4654768      0.1453757      4001.5852    
      1000   2.4599914      0.14692601     4001.9552    
      1100   2.4550585      0.15929063     4002.3639    
      1200   2.4684237      0.15057745     4002.8114    
      1300   2.4681233      0.14840028     4003.2975    
      1400   2.4654717      0.15403139     4003.8222    
      1500   2.4697221      0.14073566     4004.3856    
      1600   2.473682       0.14457283     4004.9874    
      1700   2.474786       0.15526323     4005.6279    
      1800   2.465283       0.14825616     4006.3069    
      1900   2.469572       0.15489219     4007.0245    
      2000   2.4692354      0.14905196     4007.7806    
      2100   2.4596382      0.1488264      4008.5755    
      2200   2.4619416      0.15516266     4009.4088    
      2300   2.4717885      0.14279794     4010.2806    
      2400   2.4689785      0.14827529     4011.191     
      2500   2.4679073      0.15209699     4012.1399    
      2600   2.4717719      0.14855688     4013.1273    
      2700   2.4690627      0.14309385     4014.1531    
      2800   2.4676062      0.15479566     4015.217     
      2900   2.4779694      0.15319756     4016.3193    
      3000   2.4841208      0.1334251      4017.4597    
      3100   2.4753936      0.1517419      4018.6382    
      3200   2.476853       0.15818127     4019.8548    
      3300   2.4775452      0.14752816     4021.1096    
      3400   2.4690293      0.1467471      4022.4025    
      3500   2.4689021      0.15492689     4023.7334    
      3600   2.4645345      0.14445681     4025.1023    
      3700   2.4553744      0.14460487     4026.509     
      3800   2.4581613      0.15537805     4027.9536    
      3900   2.4530424      0.15304476     4029.4363    
      4000   2.4476668      0.14383589     4030.9571    
      4100   2.4494343      0.14669232     4032.516     
      4200   2.4560878      0.15414803     4034.113     
      4300   2.4675555      0.15332352     4035.748     
      4400   2.4520315      0.1472383      4037.4208    
      4500   2.4441658      0.14996054     4039.1314    
      4600   2.4447773      0.15484495     4040.8796    
      4700   2.4319962      0.14678918     4042.6658    
      4800   2.423768       0.13810376     4044.4898    
      4900   2.4192013      0.15176751     4046.3515    
      5000   2.4201958      0.16135352     4048.251     
      5100   2.4191902      0.1489849      4050.1883    
      5200   2.4203115      0.14259524     4052.1632    
      5300   2.4169311      0.15478635     4054.1756    
      5400   2.4030964      0.15143087     4056.2255    
      5500   2.4001         0.14746478     4058.3128    
      5600   2.4079504      0.14371746     4060.4375    
      5700   2.4076264      0.15355656     4062.5995    
      5800   2.4052826      0.15450154     4064.7985    
      5900   2.3981338      0.14591956     4067.0344    
      6000   2.3943663      0.14193948     4069.3073    
      6100   2.4012484      0.15083642     4071.6168    
      6200   2.4059356      0.15695072     4073.9628    
      6300   2.3965428      0.14777088     4076.3452    
      6400   2.3801102      0.14158196     4078.764     
      6500   2.3800961      0.15236092     4081.2188    
      6600   2.382824       0.15620479     4083.7096    
      6700   2.3790095      0.14596394     4086.2362    
      6800   2.3774637      0.15004947     4088.7984    
      6900   2.37857        0.15586178     4091.3961    
      7000   2.389326       0.14303206     4094.0291    
      7100   2.374978       0.15080883     4096.6973    
      7200   2.3677134      0.15205295     4099.4004    
      7300   2.3683327      0.14225131     4102.1382    
      7400   2.3632315      0.1522403      4104.9104    
      7500   2.3548471      0.15141545     4107.7169    
      7600   2.3392488      0.14521578     4110.5575    
      7700   2.3362689      0.152729       4113.4317    
      7800   2.340718       0.15186031     4116.3394    
      7900   2.3397477      0.14059136     4119.2802    
      8000   2.3406788      0.15073569     4122.2538    
      8100   2.3370298      0.16307493     4125.2598    
      8200   2.3202983      0.14874876     4128.2979    
      8300   2.3135046      0.15087357     4131.3679    
      8400   2.3127992      0.14269839     4134.4694    
      8500   2.3078991      0.15272167     4137.6021    
      8600   2.3166071      0.15016352     4140.7656    
      8700   2.313824       0.14876302     4143.9594    
      8800   2.3028511      0.15513519     4147.1831    
      8900   2.2948894      0.14633115     4150.4365    
      9000   2.2807633      0.1545735      4153.7191    
      9100   2.279714       0.15309873     4157.0306    
      9200   2.2873869      0.13861782     4160.3704    
      9300   2.2783438      0.14958967     4163.7381    
      9400   2.2753159      0.15533905     4167.1334    
      9500   2.282294       0.14355071     4170.5559    
      9600   2.2801187      0.15218824     4174.0051    
      9700   2.2789262      0.15525634     4177.4803    
      9800   2.2713901      0.14514015     4180.9811    
      9900   2.2647567      0.14243457     4184.5069    
     10000   2.2602727      0.1540978      4188.0573    
     10100   2.2511002      0.15203366     4191.6318    
     10200   2.2412525      0.1446298      4195.2299    
     10300   2.2361626      0.14897186     4198.8514    
     10400   2.230376       0.15440654     4202.4955    
     10500   2.2245705      0.13867679     4206.1618    
     10600   2.2143719      0.14723851     4209.8498    
     10700   2.2116177      0.15419362     4213.559     
     10800   2.210574       0.14635383     4217.2888    
     10900   2.2133394      0.14555319     4221.0388    
     11000   2.2097616      0.15448382     4224.8084    
     11100   2.2108938      0.15035434     4228.597     
     11200   2.2117423      0.14389692     4232.4039    
     11300   2.2007589      0.15516402     4236.2284    
     11400   2.1987518      0.15002227     4240.07      
     11500   2.2013164      0.15461559     4243.9279    
     11600   2.1982907      0.14360799     4247.8014    
     11700   2.189013       0.14284549     4251.69      
     11800   2.1748127      0.15558352     4255.5932    
     11900   2.1788657      0.15262858     4259.5101    
     12000   2.1775654      0.14936853     4263.4403    
     12100   2.1694884      0.14490394     4267.3831    
     12200   2.1572755      0.15771339     4271.3381    
     12300   2.153417       0.15274363     4275.3047    
     12400   2.1520377      0.13972492     4279.2823    
     12500   2.1368527      0.15092854     4283.2702    
     12600   2.1402136      0.15653811     4287.2678    
     12700   2.1375229      0.14399403     4291.2744    
     12800   2.1368176      0.14249755     4295.2895    
     12900   2.144823       0.15071948     4299.3125    
     13000   2.1364945      0.16147439     4303.3426    
     13100   2.1219698      0.15068414     4307.3795    
     13200   2.1156905      0.14089077     4311.4224    
     13300   2.1136204      0.14997127     4315.4708    
     13400   2.1066512      0.16563749     4319.524     
     13500   2.0978268      0.14780819     4323.5816    
     13600   2.087881       0.14747666     4327.6428    
     13700   2.0930591      0.15431348     4331.7073    
     13800   2.099019       0.15904822     4335.7742    
     13900   2.0899515      0.14932743     4339.8431    
     14000   2.0714283      0.13973607     4343.9135    
     14100   2.067122       0.14955072     4347.9848    
     14200   2.0689839      0.16201209     4352.0565    
     14300   2.0671918      0.15041028     4356.1282    
     14400   2.0584261      0.13994535     4360.1993    
     14500   2.049282       0.15107061     4364.2694    
     14600   2.0471135      0.1536793      4368.338     
     14700   2.0565487      0.13985362     4372.4047    
     14800   2.0537197      0.14668927     4376.469     
     14900   2.0399431      0.16244638     4380.5303    
     15000   2.0393088      0.1515294      4384.5883    
     15100   2.0297197      0.14491138     4388.6424    
     15200   2.0226113      0.14962049     4392.6924    
     15300   2.0185347      0.15595322     4396.7378    
     15400   2.0016198      0.15120495     4400.7781    
     15500   2.0064986      0.14179927     4404.8131    
     15600   2.0074953      0.15247791     4408.8423    
     15700   2.0126858      0.15867506     4412.8654    
     15800   2.0177677      0.14834617     4416.882     
     15900   2.0049028      0.15194326     4420.892     
     16000   1.994526       0.15554577     4424.895     
     16100   1.9920539      0.14313477     4428.8909    
     16200   1.9852528      0.15031223     4432.8793    
     16300   1.9645996      0.15423946     4436.8603    
     16400   1.9508603      0.14717167     4440.8334    
     16500   1.9612066      0.14599947     4444.7985    
     16600   1.9623294      0.15252427     4448.7554    
     16700   1.9605989      0.14931587     4452.7038    
     16800   1.9574986      0.15124518     4456.6434    
     16900   1.9483696      0.14868634     4460.5743    
     17000   1.9516107      0.14112593     4464.4962    
     17100   1.942561       0.1550694      4468.4091    
     17200   1.9305337      0.1497987      4472.313     
     17300   1.9468568      0.14088512     4476.2076    
     17400   1.9415722      0.15433442     4480.0931    
     17500   1.9253246      0.14860604     4483.9692    
     17600   1.9254371      0.14632655     4487.836     
     17700   1.9260196      0.15522605     4491.6933    
     17800   1.9190881      0.15416184     4495.5412    
     17900   1.9122378      0.14475093     4499.3796    
     18000   1.9113834      0.14991585     4503.2085    
     18100   1.9043125      0.15559378     4507.028     
     18200   1.8951247      0.14706511     4510.838     
     18300   1.8907169      0.15791782     4514.6385    
     18400   1.8826042      0.1529937      4518.4296    
     18500   1.8752219      0.14295584     4522.2114    
     18600   1.8739586      0.1496682      4525.9839    
     18700   1.8801866      0.15816133     4529.7471    
     18800   1.8693096      0.14947593     4533.5014    
     18900   1.8605798      0.14102268     4537.2466    
     19000   1.8754942      0.1479529      4540.9828    
     19100   1.8850542      0.15043247     4544.7103    
     19200   1.8686307      0.15837311     4548.4288    
     19300   1.8635947      0.14705033     4552.1386    
     19400   1.8610241      0.1449722      4555.8398    
     19500   1.8488762      0.15670842     4559.5327    
     19600   1.8480119      0.15081364     4563.2174    
     19700   1.8481307      0.14068787     4566.894     
     19800   1.8448568      0.15190986     4570.5627    
     19900   1.8372797      0.14367977     4574.2235    
     20000   1.8315103      0.14450545     4577.8767    
     20100   1.8273853      0.1582347      4581.5224    
     20200   1.8340031      0.15462166     4585.1609    
     20300   1.8261774      0.14443499     4588.7922    
     20400   1.8266288      0.1472517      4592.4167    
     20500   1.8287625      0.15563554     4596.0343    
     20600   1.8149904      0.15058899     4599.6456    
     20700   1.8196675      0.15449347     4603.2504    
     20800   1.829628       0.14134036     4606.849     
     20900   1.8070553      0.1523889      4610.4418    
     21000   1.7957473      0.14751926     4614.0289    
     21100   1.8033717      0.14589555     4617.6106    
     21200   1.7938203      0.15869354     4621.1871    
     21300   1.7875598      0.14871399     4624.7586    
     21400   1.7925702      0.1367301      4628.3254    
     21500   1.7834545      0.15373109     4631.8876    
     21600   1.7734575      0.16199372     4635.4454    
     21700   1.7661205      0.14698986     4638.999     
     21800   1.7632712      0.15579787     4642.5486    
     21900   1.7745077      0.14973385     4646.0943    
     22000   1.7767604      0.14953946     4649.6363    
     22100   1.7776822      0.15514627     4653.1748    
     22200   1.7767475      0.14468205     4656.7101    
     22300   1.7657075      0.14931979     4660.2425    
     22400   1.7539379      0.15109446     4663.7722    
     22500   1.7582419      0.15329981     4667.2992    
     22600   1.7620889      0.13737086     4670.8241    
     22700   1.7444487      0.15473204     4674.3468    
     22800   1.7440353      0.15242292     4677.8678    
     22900   1.7568199      0.14568721     4681.3871    
     23000   1.7515003      0.1573177      4684.9049    
     23100   1.7486224      0.14948953     4688.4213    
     23200   1.751715       0.15208032     4691.9365    
     23300   1.7369686      0.152518       4695.4508    
     23400   1.714615       0.14784942     4698.9643    
     23500   1.7116875      0.14642622     4702.4771    
     23600   1.7139326      0.15439284     4705.9895    
     23700   1.7142072      0.15505129     4709.5017    
     23800   1.7205704      0.14381899     4713.0139    
     23900   1.7236486      0.14962524     4716.5261    
     24000   1.7235459      0.15328886     4720.0385    
     24100   1.7086314      0.15009945     4723.5514    
     24200   1.7067244      0.14044899     4727.0649    
     24300   1.7011308      0.15103273     4730.5789    
     24400   1.6930343      0.151922       4734.0938    
     24500   1.6923733      0.14221976     4737.6095    
     24600   1.6847744      0.15148596     4741.1263    
     24700   1.6765748      0.14346691     4744.6443    
     24800   1.6746371      0.14669409     4748.1638    
     24900   1.6816101      0.15273106     4751.6847    
     25000   1.6807289      0.15528114     4755.2074    
     25100   1.6830858      0.14164831     4758.7319    
     25200   1.677515       0.1506341      4762.2583    
     25300   1.6656535      0.14718259     4765.7866    
     25400   1.6669373      0.14262477     4769.317     
     25500   1.6725027      0.15007657     4772.8495    
     25600   1.667035       0.15763049     4776.3843    
     25700   1.6512878      0.15016462     4779.9214    
     25800   1.6429016      0.1400664      4783.4612    
     25900   1.6501981      0.14872227     4787.0034    
     26000   1.658342       0.15492188     4790.5484    
     26100   1.6543692      0.1523452      4794.0963    
     26200   1.6518302      0.13789832     4797.6472    
     26300   1.6463076      0.14805147     4801.2009    
     26400   1.6414266      0.16134411     4804.7574    
     26500   1.6427938      0.14943596     4808.317     
     26600   1.6395859      0.13607245     4811.8796    
     26700   1.638131       0.15124098     4815.4452    
     26800   1.6367865      0.15154459     4819.0141    
     26900   1.6406686      0.1397659      4822.5862    
     27000   1.6386184      0.15053174     4826.1616    
     27100   1.6341001      0.16352274     4829.7403    
     27200   1.6278252      0.15039692     4833.3222    
     27300   1.6091655      0.14369213     4836.9075    
     27400   1.5988371      0.15865982     4840.496     
     27500   1.5999599      0.15537648     4844.0878    
     27600   1.6015945      0.14174895     4847.6829    
     27700   1.6040898      0.14397182     4851.2813    
     27800   1.5954005      0.15340283     4854.8832    
     27900   1.5893146      0.15317001     4858.4884    
     28000   1.5904174      0.14563281     4862.0972    
     28100   1.5794237      0.14757737     4865.7095    
     28200   1.5883362      0.1541749      4869.3253    
     28300   1.6018164      0.14698547     4872.9444    
     28400   1.5923065      0.1594637      4876.567     
     28500   1.5911162      0.1512903      4880.1931    
     28600   1.5909488      0.14104128     4883.8226    
     28700   1.5800557      0.15330942     4887.4556    
     28800   1.5780219      0.15538392     4891.0919    
     28900   1.5759423      0.14277615     4894.7315    
     29000   1.5715403      0.14853777     4898.3744    
     29100   1.5675183      0.15051191     4902.0205    
     29200   1.5627279      0.14627781     4905.6698    
     29300   1.5648701      0.15243826     4909.3223    
     29400   1.5634961      0.15218542     4912.978     
     29500   1.5660906      0.14923575     4916.6369    
     29600   1.5612321      0.14512417     4920.2989    
     29700   1.5458314      0.14645058     4923.964     
     29800   1.5545774      0.15047356     4927.6321    
     29900   1.5583035      0.15735215     4931.3031    
     30000   1.5395434      0.15170397     4934.9769    
     30100   1.5340217      0.13951891     4938.6534    
     30200   1.5298212      0.14998461     4942.3326    
     30300   1.5225391      0.15647854     4946.0144    
     30400   1.5247443      0.14355068     4949.6988    
     30500   1.5220529      0.1509137      4953.3857    
     30600   1.5137891      0.15377177     4957.0752    
     30700   1.5163642      0.14414459     4960.767     
     30800   1.5225543      0.14899319     4964.4613    
     30900   1.5133499      0.16139862     4968.1578    
     31000   1.5110321      0.14962531     4971.8566    
     31100   1.5096694      0.13590219     4975.5574    
     31200   1.511251       0.15208567     4979.2601    
     31300   1.5119899      0.14459324     4982.9648    
     31400   1.5022703      0.14965297     4986.6713    
     31500   1.4987706      0.15460617     4990.3796    
     31600   1.4985671      0.14677483     4994.0898    
     31700   1.4945102      0.1457091      4997.8017    
     31800   1.4933909      0.15499402     5001.5152    
     31900   1.4935483      0.15225003     5005.2301    
     32000   1.4915827      0.14603366     5008.9466    
     32100   1.5104216      0.14267717     5012.6643    
     32200   1.5069348      0.1547308      5016.3834    
     32300   1.4959247      0.15050284     5020.1037    
     32400   1.4881509      0.13636337     5023.8252    
     32500   1.4804397      0.15090178     5027.5477    
     32600   1.479965       0.16227278     5031.2711    
     32700   1.4792844      0.14837859     5034.9953    
     32800   1.4829415      0.1440251      5038.7203    
     32900   1.4790543      0.15541971     5042.4458    
     33000   1.4694794      0.14969891     5046.172     
     33100   1.4647219      0.14853028     5049.8986    
     33200   1.4511348      0.15601977     5053.6256    
     33300   1.4416755      0.14689616     5057.3528    
     33400   1.4421222      0.1492157      5061.0801    
     33500   1.4388782      0.15167503     5064.8075    
     33600   1.4358251      0.15285799     5068.5349    
     33700   1.4439981      0.13870709     5072.2622    
     33800   1.447572       0.14727148     5075.9892    
     33900   1.4437457      0.15919361     5079.7161    
     34000   1.4462539      0.14838551     5083.4425    
     34100   1.4379641      0.14385054     5087.1685    
     34200   1.4244339      0.15910674     5090.8938    
     34300   1.4258155      0.1521426      5094.6185    
     34400   1.4269617      0.14129801     5098.3425    
     34500   1.4215053      0.14911183     5102.0657    
     34600   1.4132234      0.15702414     5105.7879    
     34700   1.4229104      0.1453815      5109.509     
     34800   1.4242661      0.14747858     5113.229     
     34900   1.4177071      0.15872908     5116.9479    
     35000   1.4164302      0.14735784     5120.6655    
     35100   1.4123283      0.14869958     5124.3818    
     35200   1.403825       0.15401545     5128.0968    
     35300   1.3968279      0.14650371     5131.8102    
     35400   1.3863158      0.14988979     5135.5219    
     35500   1.3897836      0.14921659     5139.2317    
     35600   1.3995247      0.14536334     5142.9397    
     35700   1.389914       0.15176312     5146.6458    
     35800   1.3899957      0.15369143     5150.3498    
     35900   1.3907996      0.14128153     5154.0518    
     36000   1.3850133      0.14746275     5157.7517    
     36100   1.3753917      0.16271106     5161.4495    
     36200   1.3748806      0.15077851     5165.1451    
     36300   1.3748237      0.13919163     5168.8383    
     36400   1.3640151      0.1523925      5172.5291    
     36500   1.3616728      0.14958943     5176.2173    
     36600   1.3621399      0.15015928     5179.9029    
     36700   1.3594122      0.14928344     5183.5859    
     36800   1.3658693      0.15045592     5187.2661    
     36900   1.366919       0.15067588     5190.9437    
     37000   1.3620255      0.1566855      5194.6185    
     37100   1.358448       0.14762035     5198.2904    
     37200   1.3592217      0.14529598     5201.9593    
     37300   1.3534452      0.15506922     5205.6252    
     37400   1.3461183      0.15270748     5209.2881    
     37500   1.3467912      0.14249262     5212.9479    
     37600   1.3429047      0.14679098     5216.6043    
     37700   1.3403043      0.16367781     5220.2574    
     37800   1.3477902      0.14944185     5223.9073    
     37900   1.3534145      0.14271611     5227.5539    
     38000   1.3383288      0.15884764     5231.1971    
     38100   1.3279672      0.1480184      5234.8368    
     38200   1.3359892      0.15540949     5238.473     
     38300   1.3250401      0.15810958     5242.1056    
     38400   1.3162548      0.14852013     5245.7346    
     38500   1.3309027      0.15443762     5249.3599    
     38600   1.3346362      0.14243427     5252.9817    
     38700   1.3213352      0.14802256     5256.5998    
     38800   1.3217293      0.15553201     5260.2141    
     38900   1.3237591      0.15111082     5263.8245    
     39000   1.3231004      0.14481582     5267.4311    
     39100   1.3183671      0.15190296     5271.0337    
     39200   1.3120516      0.15654253     5274.6324    
     39300   1.309591       0.15079873     5278.2273    
     39400   1.3068018      0.14500177     5281.8183    
     39500   1.3106003      0.15448198     5285.4053    
     39600   1.3025587      0.15172858     5288.9883    
     39700   1.2964702      0.14467937     5292.5671    
     39800   1.3066584      0.14556828     5296.1416    
     39900   1.3094756      0.14832497     5299.712     
     40000   1.3020722      0.15355927     5303.2783    
     40100   1.2950545      0.14755017     5306.8405    
     40200   1.293668       0.14549468     5310.3985    
     40300   1.2942171      0.15689989     5313.9522    
     40400   1.2834861      0.15762896     5317.5018    
     40500   1.2777915      0.1471375      5321.0473    
     40600   1.2858234      0.14913271     5324.5884    
     40700   1.2924825      0.14640692     5328.1253    
     40800   1.2880194      0.15635991     5331.6579    
     40900   1.2781319      0.15461602     5335.1862    
     41000   1.279734       0.14333457     5338.7102    
     41100   1.2939011      0.14277703     5342.2299    
     41200   1.2902103      0.15262223     5345.7453    
     41300   1.280812       0.150924       5349.2566    
     41400   1.2770313      0.14570301     5352.7636    
     41500   1.2765024      0.14523253     5356.2663    
     41600   1.2695061      0.16875466     5359.7647    
     41700   1.2663412      0.14622401     5363.2589    
     41800   1.2596345      0.14360133     5366.7487    
     41900   1.2567133      0.15250283     5370.2341    
     42000   1.2502096      0.14214444     5373.7151    
     42100   1.2481035      0.15212576     5377.1917    
     42200   1.2478161      0.16108997     5380.6638    
     42300   1.2433775      0.14582667     5384.1316    
     42400   1.2411341      0.14266712     5387.5951    
     42500   1.2358599      0.15453593     5391.054     
     42600   1.2331257      0.14806686     5394.5086    
     42700   1.2355672      0.14242134     5397.9586    
     42800   1.2359958      0.15231607     5401.4043    
     42900   1.2360413      0.15673358     5404.8457    
     43000   1.2407705      0.14448866     5408.2828    
     43100   1.2307204      0.14589203     5411.7156    
     43200   1.222689       0.15273283     5415.144     
     43300   1.2209791      0.14245315     5418.5683    
     43400   1.2171256      0.14577361     5421.9883    
     43500   1.2235589      0.15553229     5425.4041    
     43600   1.2259916      0.14991802     5428.8156    
     43700   1.2206751      0.14329447     5432.2229    
     43800   1.2238437      0.15276958     5435.6259    
     43900   1.2248471      0.15268793     5439.0249    
     44000   1.2242742      0.14187346     5442.4197    
     44100   1.2211873      0.15296034     5445.8105    
     44200   1.2089246      0.14930211     5449.1971    
     44300   1.199961       0.1539814      5452.5795    
     44400   1.2056258      0.14831072     5455.9578    
     44500   1.2053035      0.146911       5459.3319    
     44600   1.2013203      0.15135851     5462.7019    
     44700   1.2004778      0.15601978     5466.0677    
     44800   1.19135        0.14805867     5469.4294    
     44900   1.1845815      0.14525414     5472.7871    
     45000   1.1927622      0.15367159     5476.1407    
     45100   1.1971254      0.15063174     5479.4903    
     45200   1.1867059      0.14707129     5482.836     
     45300   1.1737133      0.14173839     5486.1777    
     45400   1.1716077      0.15129826     5489.5153    
     45500   1.187019       0.15875091     5492.8488    
     45600   1.1956268      0.14808399     5496.1784    
     45700   1.1851472      0.14924478     5499.5042    
     45800   1.167756       0.15554885     5502.8262    
     45900   1.1622859      0.14554601     5506.1443    
     46000   1.1687255      0.15312153     5509.4585    
     46100   1.1679188      0.15585824     5512.769     
     46200   1.1659535      0.14572044     5516.0758    
     46300   1.1772704      0.16962689     5519.3788    
     46400   1.1851079      0.15195691     5522.6782    
     46500   1.1848478      0.14110091     5525.9741    
     46600   1.1798369      0.1511254      5529.2665    
     46700   1.1678952      0.1566953      5532.5554    
     46800   1.1632895      0.14666079     5535.8408    
     46900   1.1651261      0.14824296     5539.1228    
     47000   1.160316       0.15208386     5542.4013    
     47100   1.1492534      0.15242739     5545.6763    
     47200   1.1562139      0.14672623     5548.9478    
     47300   1.1699058      0.14439756     5552.2159    
     47400   1.1645084      0.15122276     5555.4806    
     47500   1.153973       0.15724026     5558.742     
     47600   1.142192       0.15131356     5562.0002    
     47700   1.1382673      0.14046315     5565.2552    
     47800   1.1515021      0.14807982     5568.5069    
     47900   1.160285       0.15240313     5571.7555    
     48000   1.1403761      0.15229114     5575.0011    
     48100   1.1393577      0.15406398     5578.2435    
     48200   1.1581214      0.14424889     5581.4827    
     48300   1.1463489      0.1489368      5584.7188    
     48400   1.142376       0.1504152      5587.9519    
     48500   1.1516476      0.15203301     5591.1818    
     48600   1.1396577      0.16238452     5594.4087    
     48700   1.1334131      0.14827586     5597.6327    
     48800   1.1266324      0.14886814     5600.8536    
     48900   1.1210779      0.15938928     5604.0716    
     49000   1.1246237      0.1481906      5607.2865    
     49100   1.1270545      0.1488076      5610.4986    
     49200   1.1295291      0.15356015     5613.7077    
     49300   1.1340244      0.15399588     5616.914     
     49400   1.134626       0.14518957     5620.1176    
     49500   1.1280987      0.14593781     5623.3187    
     49600   1.1209503      0.15596714     5626.517     
     49700   1.1245954      0.15865355     5629.7126    
     49800   1.1292444      0.14417791     5632.9057    
     49900   1.1214611      0.14658213     5636.0962    
     50000   1.1069183      0.15302999     5639.284     
     50100   1.1011422      0.15918569     5642.4691    
     50200   1.1013421      0.14551295     5645.6515    
     50300   1.1038273      0.15043745     5648.8315    
     50400   1.0930412      0.15781195     5652.0088    
     50500   1.0788326      0.14967507     5655.1835    
     50600   1.0916913      0.15685717     5658.3556    
     50700   1.10854        0.14584634     5661.5252    
     50800   1.1021566      0.14601979     5664.6923    
     50900   1.0972259      0.16591434     5667.857     
     51000   1.1146902      0.14668663     5671.0193    
     51100   1.117774       0.14909197     5674.1792    
     51200   1.1037447      0.15944095     5677.3368    
     51300   1.1038852      0.14678462     5680.4923    
     51400   1.1110223      0.15372791     5683.6458    
     51500   1.0934587      0.15929794     5686.7971    
     51600   1.0869135      0.14854139     5689.9463    
     51700   1.0957731      0.14590972     5693.0932    
     51800   1.0914848      0.15749379     5696.2379    
     51900   1.0918719      0.14873069     5699.3804    
     52000   1.0822708      0.14283695     5702.5207    
     52100   1.0626017      0.15704952     5705.6588    
     52200   1.0663982      0.14758581     5708.7947    
     52300   1.0726939      0.14813569     5711.9284    
     52400   1.0737488      0.15211699     5715.0601    
     52500   1.0704411      0.14722518     5718.1897    
     52600   1.0595899      0.14542301     5721.3173    
     52700   1.0611112      0.15329873     5724.4429    
     52800   1.0645807      0.15428467     5727.5663    
     52900   1.0582239      0.14539057     5730.6878    
     53000   1.0586696      0.14938008     5733.8073    
     53100   1.0626919      0.15274696     5736.9248    
     53200   1.0633689      0.1462649      5740.0404    
     53300   1.0702877      0.14291775     5743.1542    
     53400   1.0694116      0.15441939     5746.2663    
     53500   1.0629049      0.1535336      5749.3766    
     53600   1.0611408      0.14284552     5752.4852    
     53700   1.0517427      0.14755865     5755.5922    
     53800   1.0496216      0.15094374     5758.6973    
     53900   1.0547503      0.14698577     5761.8005    
     54000   1.0520866      0.15522248     5764.902     
     54100   1.0637939      0.14942015     5768.0018    
     54200   1.0656858      0.15190034     5771.1       
     54300   1.0494215      0.15036529     5774.1968    
     54400   1.0456856      0.14371789     5777.292     
     54500   1.0489303      0.15148484     5780.3857    
     54600   1.0444824      0.15413815     5783.4778    
     54700   1.036403       0.14470889     5786.5685    
     54800   1.0488985      0.14869744     5789.6576    
     54900   1.053429       0.15433525     5792.7453    
     55000   1.0448816      0.14715196     5795.8314    
     55100   1.0404457      0.14518953     5798.9161    
     55200   1.0455053      0.1544554      5801.9993    
     55300   1.052848       0.15624772     5805.0811    
     55400   1.051774       0.14710295     5808.1614    
     55500   1.0468302      0.14793448     5811.2403    
     55600   1.0370876      0.153693       5814.3178    
     55700   1.0280463      0.15472006     5817.3937    
     55800   1.0226542      0.14812238     5820.4682    
     55900   1.0205343      0.15953196     5823.5413    
     56000   1.0219555      0.15084619     5826.6129    
     56100   1.0219543      0.14865276     5829.6831    
     56200   1.0232565      0.14978638     5832.7518    
     56300   1.0284172      0.15691264     5835.8191    
     56400   1.0313593      0.15433864     5838.8851    
     56500   1.0294174      0.14776921     5841.9498    
     56600   1.0320005      0.15789259     5845.0131    
     56700   1.0289571      0.15416201     5848.0752    
     56800   1.0219724      0.14511818     5851.1361    
     56900   1.0106256      0.15052865     5854.1957    
     57000   1.001163       0.14947644     5857.254     
     57100   0.99458875     0.15608888     5860.3109    
     57200   0.995426       0.14506555     5863.3664    
     57300   1.0014667      0.14816141     5866.4204    
     57400   1.0077097      0.15469044     5869.4732    
     57500   1.0114682      0.15244677     5872.5246    
     57600   1.0136565      0.14716358     5875.5748    
     57700   1.0059939      0.14731341     5878.6239    
     57800   0.99600961     0.15169477     5881.6719    
     57900   0.99302912     0.15499687     5884.7185    
     58000   0.99099288     0.14728437     5887.764     
     58100   0.98656363     0.14799427     5890.8082    
     58200   0.98854771     0.15571329     5893.8512    
     58300   0.99125677     0.14744506     5896.8929    
     58400   0.99236264     0.1449034      5899.9332    
     58500   0.99652996     0.15223594     5902.9722    
     58600   0.99346004     0.15243818     5906.0101    
     58700   0.99537348     0.1479534      5909.0469    
     58800   1.0083317      0.1475876      5912.0828    
     58900   0.99838255     0.1542805      5915.1177    
     59000   0.98368731     0.14814949     5918.1516    
     59100   0.98270321     0.15491065     5921.1844    
     59200   0.98193691     0.15677795     5924.2162    
     59300   0.97952713     0.1441491      5927.2468    
     59400   0.98436858     0.14933711     5930.2763    
     59500   0.98996899     0.15632883     5933.3047    
     59600   0.99107847     0.14710356     5936.3321    
     59700   0.98648516     0.14727963     5939.3586    
     59800   0.97658046     0.15407599     5942.3842    
     59900   0.97226462     0.15555857     5945.4089    
     60000   0.96774977     0.14990617     5948.4327    
     60100   0.96467804     0.14615006     5951.4553    
     60200   0.97178665     0.15222422     5954.4769    
     60300   0.98385911     0.15247373     5957.4974    
     60400   0.97850553     0.14552172     5960.517     
     60500   0.96411497     0.15483578     5963.5357    
     60600   0.95500251     0.15479628     5966.5534    
     60700   0.95806865     0.14282696     5969.5701    
     60800   0.96363461     0.14895946     5972.5858    
     60900   0.95154149     0.15447928     5975.6004    
     61000   0.94469506     0.14483017     5978.6138    
     61100   0.95208153     0.14806025     5981.626     
     61200   0.95996208     0.16248049     5984.6372    
     61300   0.96137792     0.15002955     5987.6474    
     61400   0.95772536     0.14287265     5990.6568    
     61500   0.95405477     0.15106769     5993.6653    
     61600   0.9477467      0.14702862     5996.6728    
     61700   0.94706561     0.14586806     5999.6793    
     61800   0.95306932     0.15216815     6002.6846    
     61900   0.95392528     0.15266816     6005.689     
     62000   0.9515986      0.14329785     6008.6924    
     62100   0.94565339     0.15059021     6011.695     
     62200   0.9477021      0.14956932     6014.6966    
     62300   0.95636774     0.14983458     6017.6975    
     62400   0.95129713     0.15646867     6020.6977    
     62500   0.94536367     0.14786249     6023.697     
     62600   0.94547292     0.14890616     6026.6955    
     62700   0.94627528     0.16190218     6029.6931    
     62800   0.94575084     0.14945057     6032.69      
     62900   0.94308835     0.13685397     6035.6861    
     63000   0.93910534     0.15372379     6038.6813    
     63100   0.93525645     0.14815773     6041.6757    
     63200   0.93324202     0.1456369      6044.6694    
     63300   0.94264357     0.15252276     6047.6622    
     63400   0.94940502     0.15220102     6050.6543    
     63500   0.9434634      0.14489101     6053.6457    
     63600   0.93307164     0.15854755     6056.6363    
     63700   0.93323352     0.15447989     6059.6261    
     63800   0.93066697     0.14178278     6062.6151    
     63900   0.92622207     0.14683027     6065.6032    
     64000   0.93150932     0.15506109     6068.5906    
     64100   0.93727796     0.13863415     6071.5773    
     64200   0.92994118     0.14653416     6074.5634    
     64300   0.92583181     0.16268475     6077.5488    
     64400   0.92754343     0.15294793     6080.5334    
     64500   0.93158933     0.13989265     6083.5172    
     64600   0.93544845     0.14662828     6086.5005    
     64700   0.93396771     0.1597288      6089.4832    
     64800   0.93038622     0.1480934      6092.4654    
     64900   0.92384996     0.15019454     6095.4469    
     65000   0.91482336     0.16009874     6098.4278    
     65100   0.91441545     0.14947041     6101.408     
     65200   0.91885888     0.14204376     6104.3875    
     65300   0.908591       0.15689774     6107.3663    
     65400   0.90469904     0.15130886     6110.3443    
     65500   0.90963395     0.14487311     6113.3216    
     65600   0.90810501     0.15507454     6116.2981    
     65700   0.90764676     0.1496723      6119.2739    
     65800   0.90687875     0.15162926     6122.2489    
     65900   0.90564897     0.15707221     6125.2232    
     66000   0.8996975      0.15064578     6128.1969    
     66100   0.89035148     0.14106793     6131.1699    
     66200   0.88681466     0.15130394     6134.142     
     66300   0.88377825     0.15261081     6137.1133    
     66400   0.87859801     0.14394876     6140.0837    
     66500   0.87917447     0.14466542     6143.0531    
     66600   0.88903356     0.15281339     6146.0215    
     66700   0.89558906     0.15976031     6148.9891    
     66800   0.89521934     0.1482148      6151.9559    
     66900   0.89632087     0.15307637     6154.922     
     67000   0.90440515     0.15353043     6157.8875    
     67100   0.90632525     0.14572505     6160.8524    
     67200   0.90554645     0.14690897     6163.8168    
     67300   0.90047199     0.15930999     6166.7806    
     67400   0.90334725     0.15173348     6169.7438    
     67500   0.90692517     0.14235864     6172.7064    
     67600   0.89705722     0.15276833     6175.6685    
     67700   0.88492299     0.15005284     6178.6301    
     67800   0.88302347     0.15430682     6181.5911    
     67900   0.88700933     0.14536982     6184.5515    
     68000   0.89101439     0.14750109     6187.5112    
     68100   0.89244913     0.15724378     6190.4704    
     68200   0.88946124     0.15125962     6193.429     
     68300   0.89208019     0.14280182     6196.3871    
     68400   0.88628907     0.14979727     6199.3446    
     68500   0.87658881     0.15498847     6202.3015    
     68600   0.8769478      0.14801953     6205.2578    
     68700   0.87687312     0.14808544     6208.2134    
     68800   0.87269737     0.16216029     6211.1684    
     68900   0.87235976     0.152118       6214.1228    
     69000   0.86212352     0.14398374     6217.0765    
     69100   0.86025895     0.14554603     6220.0295    
     69200   0.86452579     0.15370705     6222.9817    
     69300   0.86952105     0.15400777     6225.9332    
     69400   0.87433971     0.14586555     6228.884     
     69500   0.87023787     0.15017379     6231.8342    
     69600   0.86878977     0.15511604     6234.7838    
     69700   0.86887982     0.14665136     6237.7328    
     69800   0.86766297     0.14758916     6240.6812    
     69900   0.86674875     0.15459741     6243.629     
     70000   0.86946854     0.15027387     6246.5762    
     70100   0.87317262     0.14610253     6249.5227    
     70200   0.8721806      0.15026617     6252.4686    
     70300   0.86870164     0.15566247     6255.4141    
     70400   0.86507711     0.14806431     6258.3591    
     70500   0.86516362     0.14764806     6261.3034    
     70600   0.85902824     0.15181952     6264.2471    
     70700   0.84545412     0.13645268     6267.1903    
     70800   0.83477512     0.14901185     6270.1326    
     70900   0.84503598     0.15669695     6273.074     
     71000   0.85295152     0.15717189     6276.0148    
     71100   0.85221761     0.14751538     6278.955     
     71200   0.8575873      0.15936209     6281.8945    
     71300   0.85903898     0.15164364     6284.8335    
     71400   0.85356391     0.14264339     6287.7719    
     71500   0.84811304     0.15133298     6290.7097    
     71600   0.84228481     0.15694235     6293.6468    
     71700   0.84447033     0.14499679     6296.5832    
     71800   0.84559708     0.14740237     6299.5187    
     71900   0.8436709      0.15796919     6302.4537    
     72000   0.84569571     0.1511028      6305.388     
     72100   0.84786113     0.14780568     6308.3217    
     72200   0.8472975      0.15767751     6311.255     
     72300   0.84624722     0.15363066     6314.1877    
     72400   0.84714896     0.13656906     6317.12      
     72500   0.84771549     0.15431558     6320.0516    
     72600   0.83559588     0.14917116     6322.9828    
     72700   0.82817469     0.14727345     6325.9134    
     72800   0.83641865     0.15539321     6328.8435    
     72900   0.83179138     0.14888808     6331.7729    
     73000   0.83080512     0.14457217     6334.7016    
     73100   0.83975382     0.15047794     6337.6297    
     73200   0.83554233     0.16045212     6340.5574    
     73300   0.84151026     0.14388654     6343.4847    
     73400   0.84636711     0.15018236     6346.4115    
     73500   0.83738692     0.15917069     6349.3378    
     73600   0.8306321      0.14675386     6352.2637    
     73700   0.83000613     0.14651741     6355.1889    
     73800   0.83205314     0.15428853     6358.1134    
     73900   0.83300552     0.1504437      6361.0374    
     74000   0.83306509     0.14348596     6363.9609    
     74100   0.83203314     0.15208453     6366.8838    
     74200   0.8320811      0.15175239     6369.8063    
     74300   0.82865621     0.14287298     6372.7281    
     74400   0.8182604      0.15087984     6375.6494    
     74500   0.82013322     0.1537331      6378.57      
     74600   0.82689102     0.14061231     6381.49      
     74700   0.83230264     0.14818664     6384.4094    
     74800   0.82855848     0.16072904     6387.3285    
     74900   0.82451494     0.15080482     6390.2473    
     75000   0.82969269     0.14313088     6393.1655    
     75100   0.83260609     0.15330756     6396.0832    
     75200   0.83929928     0.1621536      6399.0005    
     75300   0.83027406     0.14918464     6401.9176    
     75400   0.80817173     0.14110004     6404.8341    
     75500   0.80187838     0.15448053     6407.7499    
     75600   0.80931255     0.15463196     6410.6649    
     75700   0.810925       0.14076154     6413.5793    
     75800   0.81138097     0.14810201     6416.4929    
     75900   0.80515801     0.16084085     6419.4061    
     76000   0.79856975     0.149335       6422.3187    
     76100   0.79496289     0.14271433     6425.2307    
     76200   0.7913515      0.15468907     6428.1418    
     76300   0.78703895     0.15126428     6431.0522    
     76400   0.78383438     0.14024772     6433.9619    
     76500   0.78790722     0.14709391     6436.8708    
     76600   0.79615411     0.15565648     6439.7789    
     76700   0.80086838     0.15177902     6442.6865    
     76800   0.80148752     0.14908324     6445.5935    
     76900   0.80487268     0.15614544     6448.4999    
     77000   0.81453612     0.14986602     6451.4058    
     77100   0.81248478     0.14572277     6454.3114    
     77200   0.80692872     0.15547611     6457.2166    
     77300   0.80776684     0.15389154     6460.1214    
     77400   0.80651842     0.142174       6463.0259    
     77500   0.7920819      0.15272561     6465.93      
     77600   0.78459977     0.14787572     6468.8334    
     77700   0.79215623     0.14857624     6471.7362    
     77800   0.80010697     0.15564507     6474.6384    
     77900   0.79746158     0.1512646      6477.5403    
     78000   0.79438558     0.14726908     6480.4418    
     78100   0.79060402     0.15315035     6483.3429    
     78200   0.79270354     0.15362518     6486.2437    
     78300   0.80104015     0.14994543     6489.1439    
     78400   0.80014192     0.14859413     6492.0437    
     78500   0.79348368     0.15030571     6494.9431    
     78600   0.78359169     0.15968442     6497.8419    
     78700   0.77685628     0.14890805     6500.7402    
     78800   0.77678025     0.14575971     6503.6378    
     78900   0.77896233     0.15595299     6506.5348    
     79000   0.78167308     0.15284677     6509.4311    
     79100   0.78024628     0.15036565     6512.327     
     79200   0.77578081     0.15712907     6515.2224    
     79300   0.76863988     0.14770619     6518.1173    
     79400   0.76681986     0.14369281     6521.0115    
     79500   0.7626606      0.15311528     6523.9051    
     79600   0.76679916     0.14531205     6526.7979    
     79700   0.76773167     0.14805073     6529.6901    
     79800   0.76073382     0.15116147     6532.5816    
     79900   0.76736538     0.14872672     6535.4725    
     80000   0.78275519     0.15160652     6538.3627    
     80100   0.78124792     0.15690827     6541.2524    
     80200   0.76825358     0.14971361     6544.1418    
     80300   0.76531509     0.13935961     6547.0306    
     80400   0.76785297     0.1529828      6549.9188    
     80500   0.76915495     0.15261666     6552.8063    
     80600   0.76160116     0.14747035     6555.6933    
     80700   0.75542465     0.14483109     6558.5796    
     80800   0.75505647     0.15491089     6561.4652    
     80900   0.7564315      0.15567827     6564.3501    
     81000   0.75438038     0.1476472      6567.2345    
     81100   0.75446772     0.1559713      6570.1183    
     81200   0.75334358     0.15411882     6573.0015    
     81300   0.74787584     0.14850756     6575.8842    
     81400   0.75165186     0.16164966     6578.7662    
     81500   0.76056716     0.14745561     6581.6478    
     81600   0.75225336     0.14561435     6584.5287    
     81700   0.74042187     0.16162685     6587.409     
     81800   0.74669255     0.14975667     6590.2885    
     81900   0.75100429     0.14877168     6593.1672    
     82000   0.74788163     0.15069687     6596.0452    
     82100   0.74521402     0.14967031     6598.9226    
     82200   0.74613365     0.15119199     6601.7993    
     82300   0.75407243     0.14316245     6604.6753    
     82400   0.75160677     0.15373508     6607.5507    
     82500   0.74893217     0.15096574     6610.4255    
     82600   0.75496831     0.14727271     6613.2997    
     82700   0.75416552     0.1485497      6616.1735    
     82800   0.7390969      0.15531667     6619.0468    
     82900   0.73443452     0.14677437     6621.9196    
     83000   0.73997321     0.15423383     6624.7917    
     83100   0.74205819     0.15071898     6627.6632    
     83200   0.7450681      0.13868659     6630.5342    
     83300   0.74467201     0.15189648     6633.4047    
     83400   0.74118867     0.16253976     6636.2746    
     83500   0.74965588     0.1461383      6639.144     
     83600   0.75886822     0.14745399     6642.013     
     83700   0.7512029      0.15579358     6644.8815    
     83800   0.73818138     0.14817456     6647.7498    
     83900   0.73237421     0.14674638     6650.6175    
     84000   0.73297093     0.15638597     6653.4845    
     84100   0.73521617     0.15250517     6656.351     
     84200   0.73066953     0.14431469     6659.2167    
     84300   0.73427927     0.14816419     6662.0819    
     84400   0.73892082     0.15226584     6664.9465    
     84500   0.73639761     0.14105317     6667.8106    
     84600   0.73382094     0.15038542     6670.6743    
     84700   0.72771915     0.15556937     6673.5375    
     84800   0.72048002     0.15000974     6676.4003    
     84900   0.72192124     0.14070262     6679.2624    
     85000   0.73045682     0.14621445     6682.1238    
     85100   0.73052925     0.15684333     6684.9847    
     85200   0.72332225     0.1508452      6687.8452    
     85300   0.7148512      0.14002521     6690.705     
     85400   0.71635933     0.14765502     6693.5642    
     85500   0.72818678     0.15557063     6696.4227    
     85600   0.72274252     0.14958252     6699.2808    
     85700   0.71265391     0.14369389     6702.1382    
     85800   0.72104649     0.14943253     6704.995     
     85900   0.72644122     0.15004163     6707.8511    
     86000   0.72171029     0.14245172     6710.7069    
     86100   0.72162756     0.15373057     6713.5622    
     86200   0.72583279     0.15306478     6716.4171    
     86300   0.72126967     0.13753368     6719.2717    
     86400   0.72243781     0.14761323     6722.1259    
     86500   0.73027383     0.15572056     6724.9797    
     86600   0.72901502     0.15424305     6727.8333    
     86700   0.72773104     0.14742175     6730.6867    
     86800   0.72206337     0.15277882     6733.5398    
     86900   0.7109006      0.15672748     6736.3925    
     87000   0.70734578     0.14775792     6739.2446    
     87100   0.71106807     0.14242826     6742.0962    
     87200   0.71086584     0.15537249     6744.9472    
     87300   0.70143056     0.15409502     6747.7977    
     87400   0.69696664     0.14312911     6750.6476    
     87500   0.70252407     0.15078419     6753.4969    
     87600   0.71298876     0.1491201      6756.3458    
     87700   0.71601396     0.14508672     6759.1943    
     87800   0.71778347     0.15549131     6762.0426    
     87900   0.71940414     0.15094164     6764.8906    
     88000   0.71729671     0.13756124     6767.7384    
     88100   0.71464326     0.15065287     6770.5858    
     88200   0.70213148     0.15160416     6773.4328    
     88300   0.69887978     0.14197905     6776.2792    
     88400   0.70658316     0.14931013     6779.125     
     88500   0.70394023     0.16332348     6781.9703    
     88600   0.70018917     0.15064426     6784.8152    
     88700   0.69604672     0.14035727     6787.6597    
     88800   0.69319183     0.15085395     6790.5036    
     88900   0.70063909     0.16015352     6793.3469    
     89000   0.70645556     0.14828903     6796.1899    
     89100   0.69779088     0.14994318     6799.0325    
     89200   0.68935839     0.16133044     6801.8746    
     89300   0.68484292     0.14857508     6804.7162    
     89400   0.68808983     0.15686624     6807.5572    
     89500   0.69084621     0.15045613     6810.3976    
     89600   0.68274979     0.14772201     6813.2374    
     89700   0.68069853     0.16250203     6816.0767    
     89800   0.69397868     0.14719448     6818.9154    
     89900   0.70204688     0.15057609     6821.7538    
     90000   0.69978245     0.14712901     6824.592     
     90100   0.68905213     0.16194239     6827.43      
     90200   0.68014717     0.15117101     6830.2676    
     90300   0.68654465     0.14043753     6833.1046    
     90400   0.6932637      0.14986763     6835.941     
     90500   0.69600693     0.16006545     6838.777     
     90600   0.6978844      0.14825444     6841.6125    
     90700   0.69814898     0.14926517     6844.4478    
     90800   0.70150348     0.16040186     6847.2828    
     90900   0.70117632     0.14722957     6850.1177    
     91000   0.68755958     0.14342765     6852.9523    
     91100   0.6800582      0.15302269     6855.7865    
     91200   0.68493054     0.14977385     6858.6202    
     91300   0.68427098     0.14474543     6861.4536    
     91400   0.67397771     0.16012599     6864.2865    
     91500   0.68025434     0.14911989     6867.119     
     91600   0.68611063     0.14097415     6869.951     
     91700   0.67721656     0.15572367     6872.7827    
     91800   0.67206948     0.15025277     6875.6139    
     91900   0.67144199     0.14208765     6878.4446    
     92000   0.66581804     0.15139136     6881.2745    
     92100   0.67019189     0.14964747     6884.1038    
     92200   0.66908846     0.14298285     6886.9325    
     92300   0.66358254     0.15559417     6889.7607    
     92400   0.67123038     0.14874171     6892.5883    
     92500   0.6758298      0.15049754     6895.4154    
     92600   0.67501404     0.14688761     6898.2421    
     92700   0.67079688     0.15985205     6901.0683    
     92800   0.6713546      0.15031848     6903.8941    
     92900   0.67062275     0.1404564      6906.7192    
     93000   0.66362313     0.1544828      6909.5438    
     93100   0.66450905     0.15506161     6912.3679    
     93200   0.66596732     0.14374263     6915.1916    
     93300   0.66740856     0.1460467      6918.0148    
     93400   0.66760227     0.15683917     6920.8375    
     93500   0.66146417     0.15189452     6923.6598    
     93600   0.66355907     0.14154712     6926.4816    
     93700   0.65858301     0.15202722     6929.3029    
     93800   0.64966932     0.15121541     6932.1237    
     93900   0.65194608     0.14352825     6934.9439    
     94000   0.65885658     0.146167       6937.7636    
     94100   0.66159109     0.15701216     6940.5827    
     94200   0.65452407     0.15260473     6943.4014    
     94300   0.65962027     0.14106182     6946.2195    
     94400   0.66279918     0.15267334     6949.0371    
     94500   0.65545547     0.13835606     6951.8542    
     94600   0.6549972      0.14850439     6954.6708    
     94700   0.66119388     0.15784744     6957.487     
     94800   0.6641642      0.15337789     6960.3029    
     94900   0.65375534     0.14705915     6963.1185    
     95000   0.64957698     0.14289514     6965.9338    
     95100   0.6605524      0.1512066      6968.7486    
     95200   0.65732555     0.15907419     6971.5631    
     95300   0.64880156     0.14803473     6974.3771    
     95400   0.64948075     0.14198288     6977.1907    
     95500   0.65302954     0.15248172     6980.0036    
     95600   0.65758692     0.15778102     6982.816     
     95700   0.65942658     0.1457754      6985.628     
     95800   0.65282559     0.15101016     6988.4396    
     95900   0.64779943     0.14959113     6991.2508    
     96000   0.64490903     0.15183911     6994.0615    
     96100   0.65113901     0.13822877     6996.8716    
     96200   0.6562769      0.1484736      6999.6814    
     96300   0.6581751      0.15880018     7002.4909    
     96400   0.65821941     0.14845016     7005.3001    
     96500   0.64728753     0.14505929     7008.1091    
     96600   0.63923832     0.15847127     7010.9178    
     96700   0.64049894     0.153838       7013.726     
     96800   0.64073852     0.14003757     7016.5339    
     96900   0.63016681     0.15006342     7019.3412    
     97000   0.62468634     0.15215228     7022.148     
     97100   0.63394403     0.15020493     7024.9542    
     97200   0.63956339     0.13984128     7027.7598    
     97300   0.63217619     0.15362562     7030.5649    
     97400   0.62882217     0.15502359     7033.3694    
     97500   0.63076507     0.14655187     7036.1734    
     97600   0.63080452     0.1507924      7038.9769    
     97700   0.63505694     0.1536252      7041.78      
     97800   0.63538152     0.14633096     7044.5826    
     97900   0.63168148     0.14589139     7047.3848    
     98000   0.62737266     0.15417588     7050.1865    
     98100   0.62078569     0.15015431     7052.9876    
     98200   0.61792069     0.14961251     7055.788     
     98300   0.62523768     0.13957926     7058.5877    
     98400   0.62841854     0.15034147     7061.3869    
     98500   0.63497182     0.1575275      7064.1856    
     98600   0.64361453     0.14736815     7066.984     
     98700   0.64177098     0.14819954     7069.7821    
     98800   0.63585515     0.15592885     7072.58      
     98900   0.64309056     0.14957921     7075.3775    
     99000   0.64572174     0.14814201     7078.1748    
     99100   0.63780354     0.15719146     7080.9718    
     99200   0.63407812     0.15152361     7083.7687    
     99300   0.62875969     0.14244901     7086.5652    
     99400   0.62408047     0.15024774     7089.3614    
     99500   0.61158906     0.16136038     7092.157     
     99600   0.61199073     0.14343988     7094.9522    
     99700   0.61805162     0.15018739     7097.7469    
     99800   0.61839811     0.15756926     7100.541     
     99900   0.62165748     0.14674387     7103.3346    
    100000   0.62466859     0.14919761     7106.1278    
    100100   0.62126523     0.16064497     7108.9206    
    100200   0.61848821     0.14892287     7111.713     
    100300   0.61392036     0.1386854      7114.5048    
    100400   0.60773595     0.15176368     7117.2959    
    100500   0.60618882     0.15648382     7120.0865    
    100600   0.60580729     0.14470107     7122.8765    
    100700   0.61149898     0.14843403     7125.666     
    100800   0.61533412     0.15256407     7128.4551    
    100900   0.61444682     0.14335746     7131.2437    
    101000   0.61294119     0.15120175     7134.032     
    101100   0.61392452     0.15414559     7136.8198    
    101200   0.60921693     0.14404753     7139.6071    
    101300   0.6053944      0.14629926     7142.394     
    101400   0.60726963     0.1539562      7145.1805    
    101500   0.61488072     0.14432448     7147.9666    
    101600   0.62077654     0.14517152     7150.7523    
    101700   0.62160374     0.15455281     7153.5377    
    101800   0.61689806     0.15307075     7156.3228    
    101900   0.60647806     0.14741554     7159.1076    
    102000   0.60260019     0.14800692     7161.8919    
    102100   0.60469229     0.15269882     7164.6757    
    102200   0.60652696     0.14427675     7167.459     
    102300   0.60795246     0.14767381     7170.242     
    102400   0.61543071     0.15002137     7173.0246    
    102500   0.62185708     0.1429888      7175.8071    
    102600   0.61814832     0.15600712     7178.5895    
    102700   0.61698923     0.15033383     7181.3718    
    102800   0.61385315     0.14997327     7184.154     
    102900   0.61403179     0.15414416     7186.936     
    103000   0.61353465     0.14370741     7189.7179    
    103100   0.60644515     0.14431648     7192.4996    
    103200   0.60480073     0.15498832     7195.2809    
    103300   0.61243855     0.15376184     7198.0619    
    103400   0.61591918     0.14566405     7200.8425    
    103500   0.60787649     0.14688558     7203.6229    
    103600   0.6105201      0.15394931     7206.403     
    103700   0.6202541      0.14799574     7209.183     
    103800   0.61776346     0.14590929     7211.9629    
    103900   0.61241069     0.15113062     7214.7428    
    104000   0.60816295     0.14398371     7217.5226    
    104100   0.59616559     0.14817815     7220.302     
    104200   0.58972508     0.15149627     7223.0811    
    104300   0.59802758     0.1525704      7225.8598    
    104400   0.60361293     0.14444215     7228.6381    
    104500   0.59514915     0.15036342     7231.4159    
    104600   0.59774019     0.15316968     7234.1933    
    104700   0.603024       0.14170444     7236.9702    
    104800   0.59850355     0.14678235     7239.7468    
    104900   0.59717718     0.15116477     7242.5232    
    105000   0.59264855     0.1472071      7245.2992    
    105100   0.58560675     0.15613306     7248.0749    
    105200   0.58871773     0.14963983     7250.8501    
    105300   0.59242176     0.14629689     7253.625     
    105400   0.59136528     0.15132134     7256.3993    
    105500   0.58265923     0.15370971     7259.1733    
    105600   0.57934264     0.15066402     7261.9467    
    105700   0.58533006     0.14621822     7264.7194    
    105800   0.58991093     0.14846379     7267.4916    
    105900   0.58529508     0.15369402     7270.2633    
    106000   0.5809121      0.15025182     7273.0346    
    106100   0.57976556     0.14586388     7275.8055    
    106200   0.58098428     0.15409965     7278.5759    
    106300   0.58334777     0.15327728     7281.346     
    106400   0.5862326      0.1404486      7284.1156    
    106500   0.58245013     0.14872206     7286.8849    
    106600   0.57477196     0.16125084     7289.6537    
    106700   0.5803508      0.14708808     7292.4222    
    106800   0.58662646     0.1491278      7295.1903    
    106900   0.58393717     0.1587701      7297.958     
    107000   0.58165059     0.15245343     7300.7254    
    107100   0.58105916     0.13970862     7303.4923    
    107200   0.58392599     0.15081265     7306.2588    
    107300   0.58455727     0.15562935     7309.0251    
    107400   0.58465293     0.14527307     7311.7911    
    107500   0.58040541     0.14795021     7314.557     
    107600   0.57238886     0.15602664     7317.3225    
    107700   0.57283679     0.15148528     7320.0876    
    107800   0.57776628     0.14619351     7322.8522    
    107900   0.58226817     0.1524449      7325.6166    
    108000   0.57960059     0.15450346     7328.3808    
    108100   0.57334763     0.14431284     7331.1447    
    108200   0.568796       0.14811989     7333.908     
    108300   0.56834448     0.16075871     7336.6709    
    108400   0.56763929     0.15007991     7339.4333    
    108500   0.56991205     0.13714137     7342.1952    
    108600   0.5675548      0.15181816     7344.9566    
    108700   0.56218126     0.15572635     7347.7176    
    108800   0.56769706     0.143376       7350.478     
    108900   0.57301946     0.1506596      7353.238     
    109000   0.57517467     0.14889516     7355.9976    
    109100   0.5777894      0.14197646     7358.7569    
    109200   0.57481529     0.15485511     7361.5159    
    109300   0.56773772     0.15401503     7364.2746    
    109400   0.56262073     0.14425244     7367.0329    
    109500   0.56179877     0.14800575     7369.7908    
    109600   0.55998385     0.15287755     7372.5481    
    109700   0.55689745     0.13954485     7375.3048    
    109800   0.5555166      0.14930137     7378.061     
    109900   0.55705551     0.15737941     7380.8165    
    110000   0.5599912      0.14892324     7383.5714    
    110100   0.5604319      0.14350224     7386.3257    
    110200   0.55690852     0.15521207     7389.0795    
    110300   0.55641317     0.15282955     7391.8329    
    110400   0.55014954     0.14417929     7394.5858    
    110500   0.54708553     0.15068199     7397.3383    
    110600   0.55218554     0.1513025      7400.0901    
    110700   0.55943133     0.14948129     7402.8414    
    110800   0.56536826     0.14216442     7405.5923    
    110900   0.56359175     0.15461044     7408.3429    
    111000   0.55987701     0.15397642     7411.0932    
    111100   0.56099569     0.14380638     7413.8432    
    111200   0.5667747      0.14917005     7416.5929    
    111300   0.56949677     0.15375809     7419.3422    
    111400   0.56285408     0.14555342     7422.0914    
    111500   0.55492068     0.14867488     7424.8403    
    111600   0.55304956     0.15536048     7427.5889    
    111700   0.5507272      0.14903843     7430.3372    
    111800   0.54380802     0.14864248     7433.0849    
    111900   0.54448842     0.16287929     7435.8322    
    112000   0.55245615     0.14801306     7438.579     
    112100   0.55078966     0.14840754     7441.3254    
    112200   0.55380417     0.15043301     7444.0714    
    112300   0.55652372     0.14788172     7446.8171    
    112400   0.54985398     0.16081244     7449.5626    
    112500   0.54691416     0.15014517     7452.3077    
    112600   0.55083651     0.13947898     7455.0524    
    112700   0.55189781     0.15154604     7457.7966    
    112800   0.55868407     0.15975721     7460.5406    
    112900   0.56032307     0.14866352     7463.2844    
    113000   0.552556       0.14553253     7466.0281    
    113100   0.54400498     0.15799329     7468.7717    
    113200   0.5353672      0.15229019     7471.5149    
    113300   0.53680231     0.13782269     7474.2577    
    113400   0.53895795     0.14940096     7476.9998    
    113500   0.53899397     0.15847646     7479.7413    
    113600   0.53750079     0.14710388     7482.4822    
    113700   0.53465453     0.14763881     7485.2226    
    113800   0.54301389     0.15468961     7487.9624    
    113900   0.54990619     0.15489771     7490.7019    
    114000   0.54987695     0.14762446     7493.4412    
    114100   0.5498454      0.14932512     7496.1804    
    114200   0.54806738     0.15580225     7498.9194    
    114300   0.54648146     0.14865153     7501.6582    
    114400   0.54742239     0.14599214     7504.3967    
    114500   0.55036578     0.15351181     7507.135     
    114600   0.55384874     0.15350525     7509.8732    
    114700   0.55216671     0.1474188      7512.6111    
    114800   0.54949632     0.15170413     7515.3488    
    114900   0.54265222     0.15590892     7518.0863    
    115000   0.53069697     0.1484887      7520.8235    
    115100   0.52539873     0.14287327     7523.5602    
    115200   0.52734291     0.15026185     7526.2964    
    115300   0.53511777     0.15915008     7529.0321    
    115400   0.53695101     0.14608401     7531.7674    
    115500   0.53406447     0.14383965     7534.5024    
    115600   0.53729542     0.15470155     7537.237     
    115700   0.53880109     0.14826289     7539.9712    
    115800   0.53693813     0.14625086     7542.7051    
    115900   0.53998747     0.15339434     7545.4388    
    116000   0.54729878     0.15099329     7548.1723    
    116100   0.5519439      0.14474974     7550.9057    
    116200   0.54668597     0.15118015     7553.6391    
    116300   0.53823464     0.15322087     7556.3727    
    116400   0.53202992     0.15115465     7559.106     
    116500   0.5271315      0.14883349     7561.839     
    116600   0.530143       0.15685061     7564.5716    
    116700   0.53851809     0.14272847     7567.3039    
    116800   0.54066015     0.14864803     7570.036     
    116900   0.53428978     0.15782332     7572.7678    
    117000   0.52500413     0.14968794     7575.4994    
    117100   0.51973108     0.14047905     7578.2305    
    117200   0.52497616     0.15021257     7580.9609    
    117300   0.53423221     0.15826721     7583.691     
    117400   0.53312442     0.15021439     7586.4208    
    117500   0.53025364     0.14341282     7589.1506    
    117600   0.52749657     0.1534664      7591.8801    
    117700   0.51862134     0.15223678     7594.6094    
    117800   0.51688237     0.14717333     7597.3383    
    117900   0.52514314     0.14654126     7600.0666    
    118000   0.52808771     0.15278232     7602.7945    
    118100   0.52918888     0.14971903     7605.5221    
    118200   0.5313046      0.14679526     7608.2495    
    118300   0.53326791     0.15487391     7610.9767    
    118400   0.53018512     0.132408       7613.7037    
    118500   0.51470001     0.15119743     7616.4304    
    118600   0.5111302      0.1589729      7619.1567    
    118700   0.51579031     0.14479833     7621.8826    
    118800   0.51474635     0.14482654     7624.6081    
    118900   0.51627235     0.15673926     7627.3332    
    119000   0.52223531     0.1541285      7630.0581    
    119100   0.5287425      0.14740249     7632.7828    
    119200   0.52986586     0.1518166      7635.5072    
    119300   0.52490771     0.1569405      7638.2316    
    119400   0.52100012     0.14817178     7640.9557    
    119500   0.51150983     0.1534133      7643.6795    
    119600   0.50405851     0.15561723     7646.4029    
    119700   0.51006698     0.14136696     7649.1257    
    119800   0.5134342      0.14930336     7651.848     
    119900   0.50892922     0.15533725     7654.5698    
    120000   0.50695769     0.14489908     7657.2912    
    120100   0.50812492     0.1503491      7660.012     
    120200   0.50529703     0.15089211     7662.7324    
    120300   0.50428819     0.14357155     7665.4523    
    120400   0.50227491     0.15176223     7668.1717    
    120500   0.49857382     0.1546607      7670.8906    
    120600   0.49878334     0.14251472     7673.609     
    120700   0.50166934     0.14999146     7676.3268    
    120800   0.50465542     0.15187423     7679.0442    
    120900   0.51303102     0.14454974     7681.7613    
    121000   0.52265857     0.15299056     7684.4782    
    121100   0.51910147     0.14629663     7687.1952    
    121200   0.51117159     0.14572284     7689.9121    
    121300   0.50738907     0.15483937     7692.629     
    121400   0.50932249     0.14902749     7695.3457    
    121500   0.51574133     0.15297091     7698.0621    
    121600   0.51028037     0.158312       7700.7783    
    121700   0.50949703     0.14772912     7703.4942    
    121800   0.51346011     0.15800457     7706.2099    
    121900   0.51079584     0.15356281     7708.9254    
    122000   0.50791893     0.1473721      7711.6408    
    122100   0.50901198     0.15147029     7714.3558    
    122200   0.51055888     0.15219073     7717.0708    
    122300   0.50559187     0.14401807     7719.7856    
    122400   0.49924551     0.1481457      7722.5003    
    122500   0.50322192     0.15048962     7725.2146    
    122600   0.51364103     0.1525506      7727.9287    
    122700   0.51486611     0.14151009     7730.6428    
    122800   0.50621369     0.15517563     7733.3568    
    122900   0.49929816     0.14774659     7736.0707    
    123000   0.50013743     0.14943927     7738.7845    
    123100   0.49742867     0.1565163      7741.498     
    123200   0.48925922     0.14689345     7744.2112    
    123300   0.49269198     0.15325834     7746.9239    
    123400   0.50004364     0.15112103     7749.6362    
    123500   0.49957639     0.14057942     7752.3483    
    123600   0.49618915     0.15467536     7755.0602    
    123700   0.49532116     0.15711208     7757.7718    
    123800   0.50507629     0.14498667     7760.4831    
    123900   0.50646449     0.15156045     7763.1943    
    124000   0.4940202      0.14764085     7765.9053    
    124100   0.49448065     0.14572641     7768.616     
    124200   0.50240853     0.1541786      7771.3263    
    124300   0.50314877     0.15768343     7774.0364    
    124400   0.50045451     0.14540154     7776.7464    
    124500   0.50192416     0.14243461     7779.4563    
    124600   0.49900275     0.15534492     7782.1659    
    124700   0.48684626     0.1493218      7784.8753    
    124800   0.48967748     0.14796673     7787.5842    
    124900   0.50241274     0.14734992     7790.2928    
    125000   0.50093403     0.15213388     7793.0012    
[...]
    217100   0.6753965      0.38531009     8352.329     
    217200   0.66399623     0.40852852     8354.2937    
    217300   0.66785441     0.40097651     8356.2585    
    217400   0.67050133     0.38965974     8358.2233    
    217500   0.66569535     0.40261231     8360.1882    
    217600   0.66033492     0.41379095     8362.1532    
    217700   0.65229904     0.39091336     8364.1182    
    217800   0.64984146     0.41138413     8366.0832    
    217900   0.6465293      0.40993685     8368.0481    
    218000   0.65579523     0.37445163     8370.0131    
    218100   0.66641794     0.40094391     8371.9781    
    218200   0.66785104     0.40450319     8373.9432    
    218300   0.66789948     0.37872916     8375.9084    
    218400   0.65858575     0.40191175     8377.8737    
    218500   0.6565163      0.41145227     8379.8389    
    218600   0.66045492     0.38073496     8381.8042    
    218700   0.66524827     0.40007915     8383.7695    
    218800   0.65342892     0.40708611     8385.735     
    218900   0.64747306     0.39073385     8387.7005    
    219000   0.6473717      0.3889605      8389.6661    
    219100   0.63769531     0.40718323     8391.6317    
    219200   0.63865277     0.40921245     8393.5974    
    219300   0.65376455     0.38976066     8395.5628    
    219400   0.65239837     0.39778647     8397.5282    
    219500   0.64212745     0.4021032      8399.4935    
    219600   0.64568579     0.41105951     8401.4587    
    219700   0.65059617     0.37818283     8403.4239    
    219800   0.6460345      0.4066768      8405.389     
    219900   0.63439308     0.40756252     8407.3542    
    220000   0.65701044     0.38431443     8409.3194    
    220100   0.66324423     0.40494567     8411.2845    
    220200   0.67933868     0.41859458     8413.2499    
    220300   0.70629672     0.38329858     8415.2154    
    220400   0.67957038     0.40061013     8417.1812    
    220500   0.65027046     0.40846427     8419.1472    
    220600   0.64374843     0.3972046      8421.1132    
    220700   0.64507573     0.417331       8423.0792    
    220800   0.64891066     0.40541889     8425.0453    
    220900   0.66895998     0.39287122     8427.0114    
    221000   0.66230993     0.40062214     8428.9776    
    221100   0.64107263     0.41070642     8430.9437    
    221200   0.65009876     0.40463382     8432.9098    
    221300   0.66335919     0.38825111     8434.8759    
    221400   0.67012634     0.396845       8436.8422    
    221500   0.66826468     0.41217755     8438.8084    
    221600   0.64832415     0.39857997     8440.7747    
    221700   0.62273536     0.39634786     8442.7408    
    221800   0.62918473     0.40309957     8444.7068    
    221900   0.64622769     0.39122175     8446.6726    
    222000   0.64784381     0.41841306     8448.6384    
    222100   0.63278672     0.40144145     8450.6042    
    222200   0.62072439     0.36964153     8452.5699    
    222300   0.61925643     0.40072095     8454.5354    
    222400   0.63295201     0.43110562     8456.5008    
    222500   0.66143484     0.39439466     8458.4664    
    222600   0.66619414     0.3621129      8460.4321    
    222700   0.62970583     0.41619113     8462.398     
    222800   0.60331574     0.40187862     8464.3638    
    222900   0.62770709     0.39741591     8466.3295    
    223000   0.65063276     0.39932304     8468.2951    
    223100   0.65716912     0.41692117     8470.2607    
    223200   0.65718472     0.39565996     8472.2265    
    223300   0.64520434     0.39649588     8474.1924    
    223400   0.65127071     0.41598416     8476.1585    
    223500   0.66466009     0.38614586     8478.1245    
    223600   0.64851016     0.39632099     8480.0906    
    223700   0.64489125     0.43869249     8482.0566    
    223800   0.65801593     0.39638915     8484.0229    
    223900   0.66450175     0.3668983      8485.9893    
    224000   0.65666668     0.40906031     8487.956     
    224100   0.63695032     0.40639008     8489.9229    
    224200   0.64560248     0.38383539     8491.8899    
    224300   0.65920456     0.40498923     8493.857     
    224400   0.6454442      0.40101433     8495.8243    
    224500   0.63986009     0.40101519     8497.7919    
    224600   0.64792354     0.38577602     8499.7596    
    224700   0.63872902     0.40445549     8501.7275    
    224800   0.62471669     0.40870604     8503.6956    
    224900   0.62278664     0.39388885     8505.6637    
    225000   0.61535989     0.39326681     8507.6318    
    225100   0.64561435     0.40100976     8509.5998    
    225200   0.66005651     0.40178487     8511.5679    
    225300   0.64351115     0.37681753     8513.5362    
    225400   0.63853644     0.40420939     8515.5045    
    225500   0.63643473     0.40738758     8517.4728    
    225600   0.62631174     0.38175671     8519.4412    
    225700   0.63337731     0.40062243     8521.4097    
    225800   0.64412046     0.43379129     8523.3781    
    225900   0.6334429      0.40186075     8525.3465    
    226000   0.62717508     0.37596149     8527.3149    
    226100   0.62504115     0.40496645     8529.2831    
    226200   0.61635686     0.38289325     8531.2512    
    226300   0.62503245     0.38406926     8533.2193    
    226400   0.64289582     0.40766821     8535.1874    
    226500   0.63678119     0.41419634     8537.1556    
    226600   0.63663907     0.38716196     8539.124     
    226700   0.63689582     0.40961724     8541.0925    
    226800   0.62066512     0.40703966     8543.0611    
    226900   0.62289591     0.36067018     8545.0297    
    227000   0.62088366     0.40696668     8546.9982    
    227100   0.6024864      0.4196378      8548.9666    
    227200   0.61786608     0.38619052     8550.9351    
    227300   0.63452576     0.39670341     8552.9036    
    227400   0.64028828     0.40602715     8554.8722    
    227500   0.63113208     0.38757826     8556.8408    
    227600   0.61255203     0.39988791     8558.8094    
    227700   0.60847089     0.41178029     8560.778     
    227800   0.60622427     0.39030363     8562.7464    
    227900   0.60869754     0.3873278      8564.7147    
    228000   0.62982044     0.40640414     8566.6827    
    228100   0.63429038     0.41865154     8568.6506    
    228200   0.63413839     0.39484349     8570.6185    
    228300   0.63575701     0.38189119     8572.5865    
    228400   0.63524847     0.41406369     8574.5545    
    228500   0.64158627     0.40947753     8576.5226    
    228600   0.64392351     0.38148803     8578.4909    
    228700   0.63558068     0.39274356     8580.4592    
    228800   0.64458065     0.39744523     8582.4275    
    228900   0.65327739     0.39634814     8584.3958    
    229000   0.63898509     0.42740501     8586.3641    
    229100   0.62060551     0.39900321     8588.3324    
    229200   0.61308625     0.37525146     8590.3005    
    229300   0.62254254     0.40409927     8592.2685    
    229400   0.6313237      0.43705199     8594.2365    
    229500   0.63753985     0.39254484     8596.2047    
    229600   0.64300121     0.3951681      8598.173     
    229700   0.63274644     0.41587493     8600.1416    
    229800   0.63629662     0.38927737     8602.1102    
    229900   0.622806       0.38675894     8604.079     
    230000   0.62959088     0.41886146     8606.0477    
    230100   0.65700995     0.40001253     8608.0166    
    230200   0.64215131     0.38380299     8609.9856    
    230300   0.62235014     0.42274869     8611.9548    
    230400   0.63620465     0.40232701     8613.9241    
    230500   0.6638733      0.37494475     8615.8935    
    230600   0.66483049     0.40800197     8617.8632    
    230700   0.65388579     0.44067313     8619.8332    
    230800   0.63149146     0.39300841     8621.8034    
    230900   0.61223428     0.41425116     8623.7738    
    231000   0.61173839     0.40874289     8625.7442    
    231100   0.60234887     0.3964094      8627.7146    
    231200   0.59921819     0.42534194     8629.6848    
    231300   0.61453552     0.39649437     8631.655     
    231400   0.61535274     0.39489427     8633.6252    
    231500   0.62564614     0.42105087     8635.5954    
    231600   0.64003118     0.40245767     8637.5657    
    231700   0.63039306     0.39648724     8639.5364    
    231800   0.60550616     0.40109032     8641.5072    
    231900   0.60839328     0.37780571     8643.4781    
    232000   0.63121308     0.40394027     8645.449     
    232100   0.6441235      0.38327983     8647.42      
    232200   0.64653355     0.40944442     8649.3913    
    232300   0.64328628     0.39943221     8651.3628    
    232400   0.6348953      0.38237717     8653.3346    
    232500   0.62959176     0.41425381     8655.3065    
    232600   0.61787925     0.40310834     8657.2784    
    232700   0.62549973     0.38118289     8659.2504    
    232800   0.6327492      0.39256748     8661.2225    
    232900   0.63261266     0.42520872     8663.1947    
    233000   0.62593877     0.40880674     8665.167     
    233100   0.60109205     0.38488307     8667.1394    
    233200   0.59768055     0.38388691     8669.1118    
    233300   0.59586427     0.40502088     8671.0838    
    233400   0.59329903     0.37319092     8673.0555    
    233500   0.60375006     0.39398483     8675.027     
    233600   0.63879624     0.41259255     8676.9984    
    233700   0.64510648     0.41688215     8678.97      
    233800   0.61973658     0.39494708     8680.9417    
    233900   0.5958254      0.38056806     8682.9134    
    234000   0.59001292     0.41554129     8684.8851    
    234100   0.60415286     0.40872311     8686.8566    
    234200   0.61323258     0.37810392     8688.8281    
    234300   0.63231044     0.39956136     8690.7996    
    234400   0.62756438     0.41926049     8692.7712    
    234500   0.61369004     0.39198549     8694.7429    
    234600   0.62128678     0.4163088      8696.7147    
    234700   0.61891444     0.39969234     8698.6867    
    234800   0.59543305     0.38638535     8700.6589    
    234900   0.59997838     0.39964125     8702.6311    
    235000   0.60796526     0.41479442     8704.6032    
    235100   0.59037338     0.39020971     8706.5752    
    235200   0.61236235     0.39859047     8708.5472    
    235300   0.63057247     0.41609024     8710.5192    
    235400   0.62216159     0.39433577     8712.4914    
    235500   0.61699303     0.38492326     8714.4638    
    235600   0.61266822     0.41996647     8716.4361    
    235700   0.61447991     0.40587885     8718.4086    
    235800   0.59932565     0.40143421     8720.3812    
    235900   0.59654979     0.41541574     8722.3536    
    236000   0.60418383     0.38217833     8724.326     
    236100   0.59057997     0.39806098     8726.2983    
    236200   0.59569876     0.39673997     8728.2706    
    236300   0.60226736     0.38426397     8730.2428    
    236400   0.59354091     0.4151226      8732.2149    
    236500   0.59479627     0.40186132     8734.1871    
    236600   0.60857716     0.38312596     8736.1592    
    236700   0.61717053     0.40744714     8738.1313    
    236800   0.61812673     0.41199583     8740.1036    
    236900   0.60677677     0.3887719      8742.076     
    237000   0.59955139     0.40170245     8744.0486    
    237100   0.60146558     0.41225554     8746.0211    
    237200   0.6076772      0.39642726     8747.9938    
    237300   0.61762347     0.38925623     8749.9666    
    237400   0.60635334     0.41587443     8751.9396    
    237500   0.58771397     0.41436876     8753.9126    
    237600   0.58451542     0.37771315     8755.8856    
    237700   0.59468658     0.4063117      8757.8584    
    237800   0.60650978     0.40998644     8759.8311    
    237900   0.59436239     0.39257658     8761.8037    
    238000   0.58817917     0.39531444     8763.7764    
    238100   0.60308768     0.41062275     8765.749     
    238200   0.6022108      0.38130342     8767.7217    
    238300   0.6267138      0.38974614     8769.6945    
    238400   0.64013947     0.41229876     8771.6675    
    238500   0.62862234     0.39383152     8773.6408    
    238600   0.63212066     0.38542763     8775.6143    
    238700   0.63446569     0.40878027     8777.5882    
    238800   0.6153551      0.39920906     8779.5624    
    238900   0.61195416     0.39630614     8781.5367    
    239000   0.62433277     0.41277955     8783.5112    
    239100   0.62064311     0.408879       8785.4859    
    239200   0.61115615     0.39322092     8787.4608    
    239300   0.62241713     0.43327882     8789.4359    
    239400   0.62395315     0.40707226     8791.4113    
    239500   0.62648588     0.37090064     8793.3869    
    239600   0.62296409     0.39862058     8795.3628    
    239700   0.60761067     0.42284399     8797.3389    
    239800   0.59842067     0.39235847     8799.3151    
    239900   0.59858432     0.36618982     8801.2913    
    240000   0.5858327      0.41072792     8803.2675    
    240100   0.56484328     0.40174024     8805.2436    
    240200   0.57290154     0.38856284     8807.2196    
    240300   0.58102886     0.41355562     8809.1955    
    240400   0.57882064     0.4118085      8811.1713    
    240500   0.58524171     0.38704195     8813.147     
    240600   0.58717099     0.38996261     8815.1226    
    240700   0.57538918     0.42186396     8817.0982    
    240800   0.57816323     0.40481804     8819.0737    
    240900   0.58167391     0.3904147      8821.0491    
    241000   0.58859065     0.40028486     8823.0245    
    241100   0.59050917     0.41971122     8824.9998    
    241200   0.57789693     0.39664837     8826.975     
    241300   0.58595337     0.37325264     8828.9501    
    241400   0.58228984     0.41340928     8830.9251    
    241500   0.57116194     0.41105242     8832.9       
    241600   0.58684467     0.38431256     8834.8749    
    241700   0.59344813     0.39832164     8836.8497    
    241800   0.58934493     0.42523824     8838.8246    
    241900   0.58693641     0.39536126     8840.7994    
    242000   0.59448507     0.37325443     8842.7743    
    242100   0.5865559      0.40809745     8844.7492    
    242200   0.58323689     0.43583833     8846.724     
    242300   0.59402438     0.38956116     8848.699     
    242400   0.59627393     0.37245855     8850.6738    
    242500   0.60650989     0.4084831      8852.6487    
    242600   0.61818877     0.38833586     8854.6235    
    242700   0.5957446      0.39242196     8856.5984    
    242800   0.59248928     0.40984718     8858.5733    
    242900   0.58317744     0.39756481     8860.5483    
    243000   0.57993152     0.37676528     8862.5233    
    243100   0.59622424     0.40862356     8864.4983    
    243200   0.5818915      0.39420039     8866.4733    
    243300   0.58524969     0.38400544     8868.4484    
    243400   0.60296885     0.40888863     8870.4235    
    243500   0.58941648     0.40016028     8872.3987    
    243600   0.57796426     0.39182539     8874.374     
    243700   0.55330206     0.41403976     8876.3492    
    243800   0.55339325     0.40593451     8878.3243    
    243900   0.57654556     0.39455622     8880.2991    
    244000   0.58964403     0.43836672     8882.2738    
    244100   0.58239902     0.40552041     8884.2486    
    244200   0.59699061     0.36966757     8886.2233    
    244300   0.59860449     0.40072825     8888.198     
    244400   0.56588074     0.40616487     8890.1727    
    244500   0.55719608     0.38074178     8892.1473    
    244600   0.56393438     0.40489244     8894.1218    
    244700   0.57071616     0.41532596     8896.0962    
    244800   0.58394995     0.38149175     8898.0707    
    244900   0.58616094     0.4007552      8900.0451    
    245000   0.57487657     0.40257496     8902.0195    
    245100   0.57308853     0.38191102     8903.9939    
    245200   0.59505438     0.40097516     8905.9682    
    245300   0.5857287      0.42411412     8907.9426    
    245400   0.58327374     0.38562078     8909.917     
    245500   0.57138546     0.38960962     8911.8915    
    245600   0.55472745     0.40992395     8913.8658    
    245700   0.57274041     0.39156616     8915.84      
    245800   0.58444714     0.39075743     8917.8141    
    245900   0.58485295     0.41677499     8919.7882    
    246000   0.58418774     0.40442441     8921.7624    
    246100   0.57823258     0.36027239     8923.7366    
    246200   0.56269885     0.40354386     8925.7107    
    246300   0.55820396     0.42478092     8927.6847    
    246400   0.56207066     0.39257029     8929.6585    
    246500   0.57930373     0.39306965     8931.6322    
    246600   0.58715213     0.41336325     8933.6059    
    246700   0.58799872     0.39690115     8935.5796    
    246800   0.59112513     0.38896126     8937.5534    
    246900   0.59057212     0.41177957     8939.5273    
    247000   0.5774389      0.41257427     8941.5014    
    247100   0.59571213     0.38869812     8943.4755    
    247200   0.61706389     0.38690907     8945.4497    
    247300   0.60681442     0.41712891     8947.424     
    247400   0.57801383     0.41156235     8949.3986    
    247500   0.57855676     0.38561914     8951.3732    
    247600   0.59075999     0.38988693     8953.3478    
    247700   0.59737652     0.4165884      8955.3227    
    247800   0.58710958     0.40869201     8957.2977    
    247900   0.57545237     0.37823153     8959.273     
    248000   0.58173359     0.39777839     8961.2484    
    248100   0.59084899     0.42048314     8963.2239    
    248200   0.57831024     0.40179439     8965.1997    
    248300   0.56066354     0.40101605     8967.1757    
    248400   0.55446634     0.40278379     8969.1517    
    248500   0.58371053     0.37547239     8971.1276    
    248600   0.59231778     0.40418592     8973.1035    
    248700   0.57502235     0.43172588     8975.0795    
    248800   0.58802637     0.38873119     8977.0557    
    248900   0.60718309     0.39035345     8979.032     
    249000   0.59096805     0.40940558     8981.0085    
    249100   0.5769694      0.38532486     8982.985     
    249200   0.58339689     0.391512       8984.9614    
    249300   0.58503634     0.41483816     8986.9381    
    249400   0.57492395     0.40809979     8988.9148    
    249500   0.56749503     0.38730137     8990.8917    
    249600   0.57702813     0.40103015     8992.8685    
    249700   0.5937126      0.4088406      8994.8454    
    249800   0.58049872     0.42239927     8996.8223    
    249900   0.57219485     0.39549664     8998.7994    
    250000   0.57031485     0.3991997      9000.7767    
Loop time of 92.179 on 1 procs for 250000 steps with 500 atoms

Performance: 702980.352 tau/day, 2712.116 timesteps/s
99.1% CPU use with 1 MPI tasks x no OpenMP threads

MPI task timing breakdown:
Section |  min time  |  avg time  |  max time  |%varavg| %total
---------------------------------------------------------------
Pair    | 76.065     | 76.065     | 76.065     |   0.0 | 82.52
Neigh   | 6.8394     | 6.8394     | 6.8394     |   0.0 |  7.42
Comm    | 1.5348     | 1.5348     | 1.5348     |   0.0 |  1.67
Output  | 1.4672     | 1.4672     | 1.4672     |   0.0 |  1.59
Modify  | 5.9568     | 5.9568     | 5.9568     |   0.0 |  6.46
Other   |            | 0.3153     |            |       |  0.34

Nlocal:            500 ave         500 max         500 min
Histogram: 1 0 0 0 0 0 0 0 0 0
Nghost:           1566 ave        1566 max        1566 min
Histogram: 1 0 0 0 0 0 0 0 0 0
Neighs:          14286 ave       14286 max       14286 min
Histogram: 1 0 0 0 0 0 0 0 0 0

Total # of neighbors = 14286
Ave neighs/atom = 28.572
Neighbor list builds = 12500
Dangerous builds not checked


clear
next t
next a
jump in.lj
Total wall time: 0:11:32
